MercuryDPM 1.0 name QuaternionWallUnitTest revision 195764ea repository https://bitbucket.org/mercurydpm/mercurydpm.git
dataFile    fileType ONE_FILE saveCount 100 counter 64 lastSavedTimeStep 6284
fStatFile   fileType ONE_FILE saveCount 100 counter 64 lastSavedTimeStep 6284
eneFile     fileType ONE_FILE saveCount 100 counter 64 lastSavedTimeStep 6284
restartFile fileType ONE_FILE saveCount 100 counter 64 lastSavedTimeStep 6284
statFile    fileType ONE_FILE saveCount 100 counter 0
interactionFile fileType NO_FILE saveCount 0 counter 0
xMin -6 xMax 6 yMin -6 yMax 6 zMin -6 zMax 6
timeStep 0.01 time 62.8399999999961 ntimeSteps 6284 timeMax 62.8318530717959
systemDimensions 3 particleDimensions 3 gravity 0 0 0 backgroundDrag 0 writeVTK 0 NO_FILE NO_FILE 0 0 0 0 0 random  0 1103515245 12345 1073741824 607 273 784607267
Species 1
LinearViscoelasticFrictionBondedSpecies id 0 density 1.90985931710274 stiffness 5.17502870750378 dissipation 0.693147180559947 slidingStiffness 1.47857963071537 slidingDissipation 0.198042051588556 slidingFrictionCoefficient 0.5 slidingFrictionCoefficientStatic 0.5 rollingStiffness 1.03500574150076 rollingDissipation 0.138629436111989 rollingFrictionCoefficient 0.2 rollingFrictionCoefficientStatic 0.2 torsionStiffness 0 torsionDissipation 0 torsionFrictionCoefficient 0 torsionFrictionCoefficientStatic 0 bondForceMax 0.5 bondDissipation 0
Walls 6
AxisymmetricIntersectionOfWalls id 0 indSpecies 0 position 1.5 0 1.5 orientation 0.499949081151918 0.500050913663152 0.500050913663152 0.499949081151918 velocity 0 0 0 angularVelocity 0 0.025 0 force 1.98062052869652e-15 0 5.6174682960819e-15 torque 0 8.93622452851042e-05 0 numIntersectionOfWalls 3 position 0.5 0 0 orientation 0 0 1 0 position 0 0 -1 orientation 0.707106781186547 0 -0.707106781186547 0 position 0 0 1 orientation 0.707106781186547 0 0.707106781186547 0
IntersectionOfWalls id 1 indSpecies 0 position -1.5 0 -1.5 orientation 0.707034771061015 0 0.707178783979481 0 velocity 0 0 0 angularVelocity 0 0.025 0 force 7.19032038770662e-15 0 5.44605593261194e-15 torque 0 0.000126218824793613 0 numIntersectionOfWalls 6 position -0.5 0 0 orientation 1 0 -0 0 position 0.5 0 0 orientation 0 0 1 0 position 0 -0.5 0 orientation 0.707106781186547 0 -0 0.707106781186547 position 0 0.5 0 orientation 0.707106781186547 0 -0 -0.707106781186547 position 0 0 -0.5 orientation 0.707106781186547 0 -0.707106781186547 0 position 0 0 0.5 orientation 0.707106781186547 0 0.707106781186547 0
InfiniteWall id 2 indSpecies 0 position 4.99999989629306 0 -0.00101836601798517 orientation 0.99999999481507 0 0.000101832511228944 0 velocity -2.54591507875546e-05 0 -0.12499999739457 angularVelocity 0 0.025 0 force 0.00294376408165764 0 -0.000220334314040987 torque 0 -4.26381331460383e-05 0
InfiniteWall id 3 indSpecies 0 position -0.00101836601798597 0 -4.99999989629306 orientation 0.707034771061015 0 0.707178783979481 0 velocity -0.124999997394015 0 2.54591507875546e-05 angularVelocity 0 0.025 0 force -0.000220334313938171 0 -0.00294376408166652 torque 0 -4.26381331554195e-05 0
InfiniteWall id 4 indSpecies 0 position -4.99999989629306 0 0.00101836601798567 orientation -0.000101832511228944 0 0.99999999481507 0 velocity 2.54591507875546e-05 0 0.124999997394014 angularVelocity 0 0.025 0 force -0.0029437640816814 0 0.000220334313725524 torque 0 -4.26381331715627e-05 0
InfiniteWall id 5 indSpecies 0 position 0.00101836601798536 0 4.99999989629306 orientation -0.707178783979481 0 0.707034771061015 0 velocity 0.124999997394014 0 -2.54591507875546e-05 angularVelocity 0 0.025 0 force 0.000220334313710682 0 0.00294376408168895 torque 0 -4.26381331644644e-05 0
Boundaries 0
Particles 12
BaseParticle id 0 indSpecies 0 position 2.40361127145364 0 1.50370686054984 orientation 0.708461018441984 0 0.70574994534052 0 velocity 9.39115121645833e-05 0 -0.0227923946462246 angularVelocity 0 0.0251103806816262 0 force -0.000579567793033531 0 2.09381007604485e-05 torque 0 -1.27228048340033e-06 0 radius 0.50001 invMass 0.99994000239992 timeStamp 0
BaseParticle id 1 indSpecies 0 position 0.596388728546361 0 1.49629313945017 orientation 0.708461018441984 0 0.70574994534052 0 velocity -9.39115121625669e-05 0 0.0227923946462244 angularVelocity 0 0.025110380681626 0 force 0.000579567793031643 0 -2.09381007603483e-05 torque 0 -1.27228048337918e-06 0 radius 0.50001 invMass 0.99994000239992 timeStamp 0
BaseParticle id 2 indSpecies 0 position 1.50370686054983 0 0.596388728546361 orientation 0.708461018441984 0 0.70574994534052 0 velocity -0.0227923946462244 0 -9.39115121627348e-05 angularVelocity 0 0.025110380681626 0 force 2.093810076037e-05 0 0.000579567793031699 torque 0 -1.27228048338037e-06 0 radius 0.50001 invMass 0.99994000239992 timeStamp 0
BaseParticle id 3 indSpecies 0 position 1.49629313945017 0 2.40361127145364 orientation 0.708461018441984 0 0.70574994534052 0 velocity 0.0227923946462246 0 9.3911512163383e-05 angularVelocity 0 0.0251103806816261 0 force -2.09381007604632e-05 0 -0.000579567793037417 torque 0 -1.27228048340257e-06 0 radius 0.50001 invMass 0.99994000239992 timeStamp 0
BaseParticle id 4 indSpecies 0 position -0.596398918576568 0 -1.49562553182074 orientation 0.708446578607142 0 0.705764440348077 0 velocity 0.000109391512053628 0 -0.0227577860455402 angularVelocity 0 0.0250910497460878 0 force -0.000576848082182613 0 3.01448550166198e-05 torque 0 -1.79237902624568e-06 0 radius 0.50001 invMass 0.99994000239992 timeStamp 0
BaseParticle id 5 indSpecies 0 position -2.40360108142343 0 -1.50437446817927 orientation 0.708446578607142 0 0.705764440348077 0 velocity -0.000109391512055829 0 0.0227577860455403 angularVelocity 0 0.0250910497460879 0 force 0.000576848082175285 0 -3.01448550166257e-05 torque 0 -1.7923790262505e-06 0 radius 0.50001 invMass 0.99994000239992 timeStamp 0
BaseParticle id 6 indSpecies 0 position -1.49562553182075 0 -2.40360108142343 orientation 0.708446578607142 0 0.705764440348077 0 velocity -0.0227577860455401 0 -0.000109391512054835 angularVelocity 0 0.0250910497460878 0 force 3.01448550167332e-05 0 0.000576848082177783 torque 0 -1.79237902625045e-06 0 radius 0.50001 invMass 0.99994000239992 timeStamp 0
BaseParticle id 7 indSpecies 0 position -1.50437446817927 0 -0.596398918576568 orientation 0.708446578607142 0 0.705764440348077 0 velocity 0.0227577860455403 0 0.000109391512053898 angularVelocity 0 0.0250910497460879 0 force -3.01448550165961e-05 0 -0.000576848082183223 torque 0 -1.7923790262481e-06 0 radius 0.50001 invMass 0.99994000239992 timeStamp 0
BaseParticle id 8 indSpecies 0 position -4.59773617356951 0 -0.0189014375813543 orientation 0.707649352541436 0 0.706563793190457 0 velocity -0.000471923334328716 0 0.115917425465821 angularVelocity 0 0.0244660797165425 0 force 0.0029437640816814 0 -0.000220334313725524 torque 0 1.26448342384792e-05 0 radius 0.50001 invMass 0.99994000239992 timeStamp 0
BaseParticle id 9 indSpecies 0 position -0.0189014375814539 0 4.59773617356951 orientation 0.707649352541436 0 0.706563793190457 0 velocity 0.115917425465815 0 0.000471923334334028 angularVelocity 0 0.024466079716546 0 force -0.000220334313710682 0 -0.00294376408168895 torque 0 1.2644834237794e-05 0 radius 0.50001 invMass 0.99994000239992 timeStamp 0
BaseParticle id 10 indSpecies 0 position 4.59773617356951 0 0.0189014375813706 orientation 0.707649352541438 0 0.706563793190455 0 velocity 0.000471923334308222 0 -0.115917425465836 angularVelocity 0 0.0244660797165427 0 force -0.00294376408165764 0 0.000220334314040987 torque 0 1.26448340856285e-05 0 radius 0.50001 invMass 0.99994000239992 timeStamp 0
BaseParticle id 11 indSpecies 0 position 0.0189014375812656 0 -4.59773617356951 orientation 0.707649352541437 0 0.706563793190455 0 velocity -0.115917425465826 0 -0.000471923334309239 angularVelocity 0 0.0244660797165456 0 force 0.000220334313938171 0 0.00294376408166652 torque 0 1.26448341362389e-05 0 radius 0.50001 invMass 0.99994000239992 timeStamp 0
Interactions 12
LinearViscoelasticFrictionBondedInteraction particleWallIds 0 0 timeStamp 6284 contactPoint 1.95180063576889 0 1.50185340976372 force -0.000579567793033531 0 2.09381007604485e-05 torque 0 -1.18065374796135e-05 0 slidingSpring -0.000403088526209921 0 2.98117047494988e-06 rollingSpring -0.00028067916691534 -0 2.23490044575268e-06 torsionSpring 0 0 0 bonded 1 bondForce 0.5
LinearViscoelasticFrictionBondedInteraction particleWallIds 1 0 timeStamp 6284 contactPoint 1.04819936423111 0 1.49814659023628 force 0.000579567793031643 0 -2.09381007603483e-05 torque 0 -1.18065374795414e-05 0 slidingSpring 0.000403088526209948 0 -2.98117047500493e-06 rollingSpring 0.00028067916691535 -0 -2.23490044580514e-06 torsionSpring 0 0 0 bonded 1 bondForce 0.5
LinearViscoelasticFrictionBondedInteraction particleWallIds 2 0 timeStamp 6284 contactPoint 1.50185340976372 0 1.04819936423111 force 2.093810076037e-05 0 0.000579567793031699 torque 0 -1.18065374795542e-05 0 slidingSpring 2.98117047498602e-06 0 0.000403088526209929 rollingSpring 2.23490044579009e-06 0 0.000280679166915348 torsionSpring 0 0 0 bonded 1 bondForce 0.5
LinearViscoelasticFrictionBondedInteraction particleWallIds 3 0 timeStamp 6284 contactPoint 1.49814659023628 0 1.95180063576889 force -2.09381007604632e-05 0 -0.000579567793037417 torque 0 -1.18065374796277e-05 0 slidingSpring -2.98117047492612e-06 0 -0.000403088526209933 rollingSpring -2.23490044573548e-06 -0 -0.000280679166915338 torsionSpring 0 0 0 bonded 1 bondForce 0.5
LinearViscoelasticFrictionBondedInteraction particleWallIds 4 1 timeStamp 6284 contactPoint -1.04820399508468 0 -1.49553351492826 force -0.000576848082182613 0 3.01448550166198e-05 torque 0 -1.53588977853986e-05 0 slidingSpring -0.000339218380591915 0 -3.26460198888959e-06 rollingSpring -0.000265667094358088 0 -2.57751157882595e-06 torsionSpring 0 0 0 bonded 1 bondForce 0.5
LinearViscoelasticFrictionBondedInteraction particleWallIds 5 1 timeStamp 6284 contactPoint -1.95179600491532 0 -1.50446648507175 force 0.000576848082175285 0 -3.01448550166257e-05 torque 0 -1.53588977854068e-05 0 slidingSpring 0.000339218380591913 0 3.26460198889048e-06 rollingSpring 0.000265667094358088 -0 2.57751157882547e-06 torsionSpring 0 0 0 bonded 1 bondForce 0.5
LinearViscoelasticFrictionBondedInteraction particleWallIds 6 1 timeStamp 6284 contactPoint -1.49553351492826 0 -1.95179600491532 force 3.01448550167332e-05 0 0.000576848082177783 torque 0 -1.53588977854551e-05 0 slidingSpring -3.26460198897933e-06 0 0.000339218380591864 rollingSpring -2.57751157888514e-06 0 0.000265667094358084 torsionSpring 0 0 0 bonded 1 bondForce 0.5
LinearViscoelasticFrictionBondedInteraction particleWallIds 7 1 timeStamp 6284 contactPoint -1.50446648507175 0 -1.04820399508468 force -3.01448550165961e-05 0 -0.000576848082183223 torque 0 -1.53588977853903e-05 0 slidingSpring 3.26460198886766e-06 0 -0.000339218380591866 rollingSpring 2.57751157881138e-06 -0 -0.000265667094358088 torsionSpring 0 0 0 bonded 1 bondForce 0.5
LinearViscoelasticFrictionBondedInteraction particleWallIds 10 2 timeStamp 6284 contactPoint 5.04887504988699 0 0.0188095563705646 force -0.00294376408165764 0 0.000220334314040987 torque 0 0.000111775732328112 0 slidingSpring -0.00194384505775841 0 -4.99085644613955e-05 rollingSpring -0.001223107171029 -0 -3.61442293942257e-05 torsionSpring 0 0 0 bonded 1 bondForce 0.5
LinearViscoelasticFrictionBondedInteraction particleWallIds 11 3 timeStamp 6284 contactPoint 0.0188095563704623 0 -5.04887504988699 force 0.000220334313938171 0 0.00294376408166652 torque 0 0.000111775732332345 0 slidingSpring -4.99085644676203e-05 0 0.00194384505775794 rollingSpring -3.61442293983743e-05 -0 0.00122310717102875 torsionSpring 0 0 0 bonded 1 bondForce 0.5
LinearViscoelasticFrictionBondedInteraction particleWallIds 8 4 timeStamp 6284 contactPoint -5.04887504988699 0 -0.0188095563705483 force 0.0029437640816814 0 -0.000220334313725524 torque 0 0.000111775732338642 0 slidingSpring 0.00194384505775835 0 4.99085644737365e-05 rollingSpring 0.0012231071710289 0 3.61442294033524e-05 torsionSpring 0 0 0 bonded 1 bondForce 0.5
LinearViscoelasticFrictionBondedInteraction particleWallIds 9 5 timeStamp 6284 contactPoint -0.0188095563706506 0 5.04887504988699 force -0.000220334313710682 0 -0.00294376408168895 torque 0 0.000111775732331269 0 slidingSpring 4.99085644643466e-05 0 -0.00194384505775808 rollingSpring 3.61442293967099e-05 0 -0.0012231071710287 torsionSpring 0 0 0 bonded 1 bondForce 0.5
