restart_version 2
name H10A28L2M0.5B0.5
xmin 0 xmax 20 ymin 0 ymax 10 zmin 0 zmax 12
dt 0.0001 t 2000.0001 tmax 2000 save_count 500000
dim 3 gravity 0.46947156 0 -0.88294759
options_fstat 1 options_data 1 options_ene 1 options_restart 2
Species 1
k 200000 disp 25 kt 57142.857 dispt 25 mu 0.5 rho 1.9098593 dim_particle 3
Walls 1
numFiniteWalls 0 normal 0 0 -1 position 1.7
WallsPeriodic 2
normal 1 0 0 pos_left 0 pos_right 20 shift 20 0 0
normal 0 1 0 pos_left 0 pos_right 10 shift 0 10 0
Particles 2067
19.330017 1.0144385 -1.4931023 0 0 0 1 0 0 0 0 0 0 0 0 0 
19.998067 4.801808 -1.6774446 0 0 0 1 0 0 0 0 0 0 0 0 0 
9.0009585 2.2610568 -0.7392901 0 0 0 1 0 0 0 0 0 0 0 0 0 
11.319671 5.3727791 -2.0989941 0 0 0 1 0 0 0 0 0 0 0 0 0 
5.4432148 0.69356462 -2.3006582 0 0 0 1 0 0 0 0 0 0 0 0 0 
2.4775488 2.183002 -0.97341932 0 0 0 1 0 0 0 0 0 0 0 0 0 
10.381533 3.856421 -0.96416921 0 0 0 1 0 0 0 0 0 0 0 0 0 
11.232541 0.3387141 -2.1629756 0 0 0 1 0 0 0 0 0 0 0 0 0 
10.273786 0.7403499 -0.46097249 0 0 0 1 0 0 0 0 0 0 0 0 0 
12.119962 9.1507635 -0.7747042 0 0 0 1 0 0 0 0 0 0 0 0 0 
17.507186 1.8130578 -1.1150478 0 0 0 1 0 0 0 0 0 0 0 0 0 
0.10339191 6.7847973 -1.8655902 0 0 0 1 0 0 0 0 0 0 0 0 0 
4.6265159 2.1817674 -1.1848395 0 0 0 1 0 0 0 0 0 0 0 0 0 
2.3793022 7.152178 -0.54923244 0 0 0 1 0 0 0 0 0 0 0 0 0 
9.618117 6.9437624 -0.24860092 0 0 0 1 0 0 0 0 0 0 0 0 0 
8.2963885 8.5273967 -1.9377969 0 0 0 1 0 0 0 0 0 0 0 0 0 
17.996162 9.5389345 -1.478369 0 0 0 1 0 0 0 0 0 0 0 0 0 
3.8480144 3.7084524 -2.2709868 0 0 0 1 0 0 0 0 0 0 0 0 0 
14.569038 4.5746731 -2.1100379 0 0 0 1 0 0 0 0 0 0 0 0 0 
11.60796 2.1562788 -1.2803502 0 0 0 1 0 0 0 0 0 0 0 0 0 
1.9033776 4.2527062 -1.9295815 0 0 0 1 0 0 0 0 0 0 0 0 0 
9.6787983 6.494031 -2.1903785 0 0 0 1 0 0 0 0 0 0 0 0 0 
5.3729973 8.2317838 -0.24498363 0 0 0 1 0 0 0 0 0 0 0 0 0 
7.1046979 4.352739 -1.8206174 0 0 0 1 0 0 0 0 0 0 0 0 0 
4.7818852 0.33002225 -0.44813685 0 0 0 1 0 0 0 0 0 0 0 0 0 
19.413485 8.3252937 -0.80739518 0 0 0 1 0 0 0 0 0 0 0 0 0 
16.273632 0.41309669 -1.9180405 0 0 0 1 0 0 0 0 0 0 0 0 0 
10.267362 8.575693 -2.1607585 0 0 0 1 0 0 0 0 0 0 0 0 0 
16.210608 7.4546657 -0.77787905 0 0 0 1 0 0 0 0 0 0 0 0 0 
1.4017444 3.9329842 -0.024649341 0 0 0 1 0 0 0 0 0 0 0 0 0 
14.559586 9.4823649 -1.5499246 0 0 0 1 0 0 0 0 0 0 0 0 0 
0.89243535 5.855513 -0.24304626 0 0 0 1 0 0 0 0 0 0 0 0 0 
6.5814665 9.3658123 -1.367215 0 0 0 1 0 0 0 0 0 0 0 0 0 
12.371518 4.0054793 -1.0762213 0 0 0 1 0 0 0 0 0 0 0 0 0 
5.3888749 3.9629039 -0.65259336 0 0 0 1 0 0 0 0 0 0 0 0 0 
11.885399 5.7239607 -0.17468586 0 0 0 1 0 0 0 0 0 0 0 0 0 
1.9694367 6.2128737 -2.2654843 0 0 0 1 0 0 0 0 0 0 0 0 0 
1.3240057 8.7162954 -1.2277861 0 0 0 1 0 0 0 0 0 0 0 0 0 
6.7173069 0.83747111 -0.046913899 0 0 0 1 0 0 0 0 0 0 0 0 0 
6.8644238 5.3678862 -0.068038272 0 0 0 1 0 0 0 0 0 0 0 0 0 
8.8201676 5.1330734 -1.0194902 0 0 0 1 0 0 0 0 0 0 0 0 0 
14.711867 4.213571 -0.15227394 0 0 0 1 0 0 0 0 0 0 0 0 0 
4.0050126 7.6781626 -1.5827513 0 0 0 1 0 0 0 0 0 0 0 0 0 
14.791158 1.0164942 -0.252422 0 0 0 1 0 0 0 0 0 0 0 0 0 
6.038574 7.6240352 -2.1355829 0 0 0 1 0 0 0 0 0 0 0 0 0 
3.4881521 1.0646865 -2.397689 0 0 0 1 0 0 0 0 0 0 0 0 0 
13.737693 5.9178694 -0.89791124 0 0 0 1 0 0 0 0 0 0 0 0 0 
13.374957 2.6600646 -2.1306228 0 0 0 1 0 0 0 0 0 0 0 0 0 
0.33497185 2.7112414 -1.1908701 0 0 0 1 0 0 0 0 0 0 0 0 0 
13.405396 2.5260049 -0.13938516 0 0 0 1 0 0 0 0 0 0 0 0 0 
7.0155577 2.7023384 -0.700436 0 0 0 1 0 0 0 0 0 0 0 0 0 
13.511428 7.7913334 -1.5279549 0 0 0 1 0 0 0 0 0 0 0 0 0 
11.586472 7.2319552 -1.4531329 0 0 0 1 0 0 0 0 0 0 0 0 0 
8.5291123 0.42952152 -1.3801095 0 0 0 1 0 0 0 0 0 0 0 0 0 
3.1602621 9.4798821 -1.2510768 0 0 0 1 0 0 0 0 0 0 0 0 0 
5.579762 5.770911 -1.5589688 0 0 0 1 0 0 0 0 0 0 0 0 0 
3.4988758 5.0669081 -0.7550967 0 0 0 1 0 0 0 0 0 0 0 0 0 
15.260754 2.8080827 -1.4761412 0 0 0 1 0 0 0 0 0 0 0 0 0 
8.8913668 3.5695487 -2.2570855 0 0 0 1 0 0 0 0 0 0 0 0 0 
7.6871037 6.7628575 -1.2367601 0 0 0 1 0 0 0 0 0 0 0 0 0 
16.633641 6.0268704 -2.1026496 0 0 0 1 0 0 0 0 0 0 0 0 0 
9.4548971 8.9255459 -0.35693579 0 0 0 1 0 0 0 0 0 0 0 0 0 
17.026194 4.6232216 -0.74438735 0 0 0 1 0 0 0 0 0 0 0 0 0 
18.138275 6.7163885 -0.89904905 0 0 0 1 0 0 0 0 0 0 0 0 0 
18.508556 3.495914 -1.478946 0 0 0 1 0 0 0 0 0 0 0 0 0 
1.0529106 0.8638742 -0.49695421 0 0 0 1 0 0 0 0 0 0 0 0 0 
13.108013 0.83602468 -1.3585504 0 0 0 1 0 0 0 0 0 0 0 0 0 
18.739648 8.8487817 9.077497 4.5302617 0.37228784 0.26593909 0.5 -14.880794 485.53217 32.227454 -0.64075875 1.4855034 -0.8886309 1 10 1 2.9932185e-05 8.7346175e-06 -5.6301957e-06 49 -1 992.0335 
0.38981463 2.8669683 0.30642086 0.074334241 -0.13975475 -0.061663473 0.5 4.6493726 322.54743 11.098816 0.15310501 0.24829934 0.15167385 1 10 1 8.3629796e-07 -2.1149715e-06 -4.1256604e-06 29 -1 1999.8929 
15.922644 4.8694146 3.4296905 1.6775959 -0.33850997 0.41991877 0.5 -14.025636 472.99311 -29.659976 -0.97442132 -0.95627849 -1.2753258 1 10 1 1.8993642e-06 -5.1356345e-06 2.8825843e-06 68 -1 1888.3493 
10.657098 2.0227235 2.303412 0.2890816 0.16354032 -0.077427784 0.5 7.7777029 454.03413 -8.8381342 -1.371714 0.14127066 1.4999824 1 10 1 1.7361173e-05 -1.1772786e-05 -3.2390537e-06 56 -1 1671.3201 
19.891865 0.71064137 0.44038052 -0.016023448 0.14078899 -0.057766549 0.5 8.0375371 546.58495 30.702562 0.52221999 -0.17689192 -0.032802949 1 10 1 1.2368957e-06 -5.4048465e-06 6.3149494e-07 65 -1 1999.9774 
13.355137 3.3113101 2.3469933 1.1046409 -0.64414 -0.34821975 0.5 -20.794114 471.80601 31.32402 0.68157436 -1.5843947 -1.4163651 1 10 1 1.446309e-05 -2.5108779e-06 -1.9301145e-06 10 -1 1976.212 
2.2846793 0.11581224 2.6898212 1.4258103 -0.18414693 0.70254885 0.5 7.4429101 442.72107 -9.0479874 0.20268314 1.5858782 0.70450909 1 10 1 2.6428582e-05 1.2007731e-05 -7.2049387e-06 65 -1 1981.8343 
0.50654524 9.2555153 4.1233775 2.279391 -0.18841079 -0.85292631 0.5 1.7317191 510.89486 11.783162 0.26066292 -0.87476081 -0.20182927 1 10 1 -2.2253262e-05 -2.5702375e-06 -6.3807621e-06 70 -1 1894.1663 
0.80227601 5.4050657 1.96937 1.2507981 -0.10729459 -0.14318766 0.5 -14.438137 346.52667 -27.791289 0.90000795 0.41435252 -0.71742535 1 10 1 5.9917741e-06 5.9419311e-06 -6.5074229e-06 41 -1 1991.3229 
10.129018 0.77090066 8.5452156 4.7904247 0.17119911 -0.73899119 0.5 37.456576 462.96791 53.268347 0.70118639 0.02636787 0.87168141 1 10 1 -4.0323719e-06 6.7710023e-06 3.1287652e-05 71 -1 1630.9947 
13.493461 4.7171595 6.4757855 2.6463854 0.26321897 0.40854623 0.5 -18.171199 488.74599 -14.539683 0.5236001 -0.034318028 0.88840315 1 10 1 -1.4922646e-05 -1.8227975e-05 1.6611783e-05 73 -1 1801.1729 
15.354552 5.9194688 -1.2002046 0.074353028 0.0088558518 0.049427896 0.5 3.4096572 -15.345246 -6.4431569 -0.14180999 -0.066001632 -0.099594312 1 10 1 0.00013179836 -0.00032087366 0 -1 0 2000.0001 
0.11040024 5.7477714 9.8566534 5.760858 -0.21582858 -0.34028347 0.5 22.70388 481.59206 66.319215 -0.91934846 1.6868726 -0.62526605 1 10 1 -4.2141806e-05 -2.1511347e-05 -2.2508162e-05 76 -1 1866.1898 
0.40310542 5.1529869 7.1058265 3.790636 0.54170972 0.20207668 0.5 -14.257066 418.13049 2.9692238 0.72739582 -0.07313524 -1.3348563 1 10 1 1.6636413e-05 7.2470787e-06 2.1522447e-05 68 -1 1491.102 
10.991796 7.3586009 9.350812 4.48023 -0.38972881 0.11998003 0.5 42.152024 554.65223 -6.9487724 -0.44775699 0.13722749 -0.072713732 1 10 1 -6.010716e-06 1.5220513e-06 -1.0174372e-05 79 -1 1884.015 
16.720449 8.800682 -1.2000262 0.0044313459 -0.0097696704 0.0041777823 0.5 17.113791 10.633203 3.214138 -0.0058684399 0.024489909 -0.019673234 1 10 3 -6.11225e-06 3.2205357e-05 0 -1 0 2000.0001 1.3413395e-05 -1.7068956e-05 -3.8224579e-05 28 -1 2000.0001 1.7711003e-05 -3.3164397e-05 -6.7885735e-06 16 -1 2000.0001 
6.6807151 0.13830364 5.9030676 2.9004151 0.21286932 0.021670463 0.5 25.384996 521.52094 2.0821361 -0.047876065 -1.34532 0.35971347 1 10 1 -7.9888145e-07 -7.645448e-07 5.5954903e-08 76 -1 1885.0279 
2.6826384 4.0500552 3.1735263 1.1045574 -0.12859624 0.046483851 0.5 -10.731985 605.56453 -8.0632298 -0.71648534 -0.54987641 -0.24894603 1 10 1 -1.1045197e-05 -5.5967916e-06 -4.8003536e-08 74 -1 1797.671 
19.39936 8.8788669 8.2567165 4.3453652 0.037607966 -0.29018404 0.5 9.1299189 211.91648 -10.739165 0.55830534 -0.22150474 0.44235294 1 10 1 1.6828173e-05 -3.8141873e-05 1.1199e-05 67 -1 1999.8043 
15.782299 8.9303162 -0.87884796 -0.04557374 -0.079914522 -0.021420271 0.5 7.848106 394.19241 39.519753 0.5018748 -0.17835837 0.076017962 1 10 1 6.7023608e-07 2.6166673e-06 9.0058499e-07 82 -1 1999.9987 
9.3162559 0.7921443 7.5885273 4.0589701 0.15828178 -0.27221337 0.5 -24.246232 449.7536 10.804675 -0.55978649 -1.0020467 0.83120105 1 10 1 -3.8889432e-05 2.5113957e-05 3.4530546e-05 76 -1 1998.8938 
2.6246179 4.9080388 2.653956 0.9470278 -0.29476583 0.0021072521 0.5 15.991493 426.18927 14.558289 0.78653666 1.4142294 -0.74722764 1 10 1 1.1949915e-05 -1.465899e-05 -2.429087e-05 84 -1 1999.9109 
13.080969 6.0457712 7.5782963 4.5987511 -0.29577611 0.17419393 0.5 -36.315698 580.75959 -11.589776 0.64051615 0.1505819 0.76698342 1 10 1 -6.8004734e-05 1.139627e-05 -2.696807e-05 80 -1 1844.8823 
4.6004938 3.9383405 3.2168493 1.4496749 -0.17326587 0.31974479 0.5 -22.145915 500.68814 23.625224 -2.0759853 0.17522238 0.18137119 1 10 1 -1.6544804e-05 7.2754353e-06 4.8294999e-06 88 -1 1841.8206 
4.9906662 1.2010078 5.9074296 2.8340425 0.0048672924 0.14541526 0.5 28.215013 509.60443 -13.244991 0.50754336 0.87476943 1.3143157 1 10 1 8.9703097e-07 -1.5476766e-05 -4.2199885e-06 87 -1 1992.6677 
9.0134681 2.4065943 6.1176902 3.0092922 -0.47403523 -0.034493351 0.5 0.53443138 458.36975 8.2060223 -1.1953589 1.3564633 0.00039340033 1 10 1 7.6127732e-05 9.9094585e-05 -7.4309804e-07 91 -1 1853.7753 
2.9913675 6.4662365 4.3187869 2.6004159 0.27136295 -0.33936685 0.5 -1.9574068 524.93252 -47.136393 -1.4888418 -0.041873588 -0.59774219 1 10 1 4.5752e-06 -1.6853982e-06 -3.8804292e-06 84 -1 1818.9326 
0.69134245 7.2724969 2.6765691 1.1513912 -0.42468825 0.078859538 0.5 -25.185193 515.96038 -7.8712941 -0.085618304 0.76773135 0.59960731 1 10 1 -4.4172619e-05 3.7899393e-05 3.2779324e-05 88 -1 1966.9507 
18.825725 3.500014 3.7528116 2.2520852 -0.11268455 -0.55576097 0.5 -3.491062 401.21915 -16.794088 0.099821647 -0.34112343 -0.2458283 1 10 1 2.7133618e-05 -1.1283245e-06 -1.0196986e-05 69 -1 1994.4711 
13.753665 9.5207396 9.6023096 4.6171965 0.22252879 0.22789328 0.5 23.29988 520.34294 -49.997148 -0.018878429 0.91913614 0.53169772 1 10 1 -8.1322068e-06 -2.0954262e-05 1.3992949e-06 87 -1 1994.4634 
11.564828 3.6679518 5.4643615 2.8511774 -0.38572334 0.33169648 0.5 -22.685155 485.76575 41.105184 0.21534562 0.77869868 0.68857114 1 10 1 1.4579628e-05 -1.6396395e-05 3.14938e-05 77 -1 1995.8096 
0.19133852 3.0590908 9.8475099 4.9067201 -0.034711024 -0.51687771 0.5 55.803014 439.00542 -8.3289237 -2.6657597 -0.89988759 -2.5948952 1 10 1 4.5579271e-06 5.6205583e-05 -1.9181313e-06 96 -1 1795.1652 
7.4198811 0.35244377 1.1947687 0.81805657 0.70995362 -0.14040295 0.5 -17.140809 527.23625 7.7061621 -1.3071893 0.51610769 -0.24643242 1 10 1 6.0398723e-06 4.2660127e-06 -1.2200426e-06 38 -1 1999.9041 
9.4062659 9.202639 2.8038407 1.4333832 -0.06644292 -0.26465477 0.5 8.3759235 529.59427 -14.267387 0.6778055 0.34964643 -0.31442273 1 10 1 4.0953013e-06 3.6162311e-05 7.0854791e-06 38 -1 1939.8126 
0.49790508 0.1449256 4.6523302 2.1760596 -0.69167115 0.053124561 0.5 13.330867 493.22022 12.053613 1.4268789 -0.037393803 0.2561179 1 10 1 -3.7485071e-05 -9.1647738e-06 2.6554169e-05 74 -1 1999.6705 
16.681269 8.5563975 0.95475384 0.66836384 0.22699789 0.074772383 0.5 12.883433 487.94254 -0.56159574 -0.46957453 -0.49833917 0.72054081 1 10 1 -4.825339e-06 3.5086182e-06 4.0469144e-06 9 -1 1987.7525 
18.116228 5.437679 -0.11251973 0.10540564 0.017800171 -0.13969558 0.5 16.760575 520.01692 -17.678441 0.067599123 0.22487519 -0.15043507 1 10 1 -3.4115553e-07 3.3480321e-06 -3.7191182e-06 62 -1 1999.9907 
13.698477 7.1037765 5.1266454 2.5889723 -0.0086929671 0.30264332 0.5 18.190215 539.97404 -13.724994 -0.13838572 0.31944425 -0.83503656 1 10 1 -1.4815564e-05 -1.1209738e-05 2.5017161e-05 94 -1 1977.2549 
3.2536403 6.1097676 6.1853394 3.2465576 -0.19484911 0.075104457 0.5 -2.5937985 450.46837 23.562947 -0.0027395505 0.44500629 1.188619 1 10 1 -1.1346471e-05 1.8157893e-06 6.774024e-07 101 -1 1932.2698 
1.3206609 9.450222 1.9868068 1.4147466 0.16484677 0.018190622 0.5 21.111564 428.69423 -55.663294 1.0626604 -1.2949689 0.26028378 1 10 1 -3.4662049e-05 7.3591394e-06 7.3132194e-06 73 -1 1995.5496 
7.9048947 6.3680846 7.247111 3.3434892 -0.13547358 -0.20205752 0.5 -1.7996846 459.36364 -8.67127 -0.93741368 -0.85550227 -0.69981688 1 10 1 -1.4357408e-05 1.4011502e-06 -9.9626171e-06 105 -1 1963.0928 
4.0887391 3.9351712 0.09768233 0.10066444 0.21495681 -0.0529799 0.5 -29.261511 490.6947 -1.8540206 -0.5107455 0.50529225 0.31351924 1 10 1 -1.2852593e-05 -4.1883846e-05 -2.4818647e-05 34 -1 1999.8215 
2.861094 5.414661 4.3168793 2.1004771 0.17529462 0.085237888 0.5 16.85182 566.90883 6.119371 0.41862717 0.26295871 -0.023270341 1 10 1 -8.5592314e-06 1.3491288e-06 -3.009395e-05 93 -1 1999.8267 
9.2529498 5.772938 9.1018158 4.3926824 0.39822134 0.54362432 0.5 3.7418233 439.41577 -38.821895 0.41500964 0.21366219 -0.36137308 1 10 1 -1.6072813e-05 -6.5002613e-05 5.1926485e-05 80 -1 1985.4053 
9.6188994 0.47387266 0.86271494 -0.028669636 0.19631953 0.011524665 0.5 -40.178458 543.08662 -13.121288 0.23223996 -0.025945638 -0.66563421 1 10 1 -2.6849747e-07 3.8679024e-06 6.7638462e-07 8 -1 1999.9486 
19.830188 9.3218988 4.8652704 2.7945905 -0.44107587 -0.34963859 0.5 -2.1580712 412.98932 -16.263046 -0.57421411 1.611139 -0.37285581 1 10 1 5.4337e-07 5.9832365e-07 5.6588376e-07 74 -1 1999.7912 
4.4279645 0.61850676 6.9785698 4.2166718 -0.57019558 -0.27022115 0.5 -21.385225 485.70192 18.632186 -0.70589297 -0.65730764 -1.5623343 1 10 1 -5.4659e-05 7.4304685e-05 9.8508663e-06 112 -1 1979.2854 
15.672804 8.3950329 3.9633339 1.8241573 0.075086937 0.53559727 0.5 -14.539875 566.83414 30.786767 0.0076961342 0.0018183512 0.60912293 1 10 1 2.1152272e-05 -2.1648525e-06 -2.048384e-05 74 -1 1953.4396 
7.2678662 7.3557283 9.8606533 5.2014104 0.30194949 0.2912615 0.5 52.710063 445.5829 -26.146452 0.080527686 1.5038248 2.4342 1 10 1 -2.5620305e-05 -6.9290531e-06 6.0031575e-06 110 -1 1951.3683 
13.805024 4.2456013 5.1837809 2.7998182 0.62444788 0.33773976 0.5 61.821078 539.97612 25.765086 1.015305 0.5776738 -0.90181284 1 10 1 5.9410869e-06 -5.2519373e-06 -1.3170306e-06 109 -1 1979.1607 
5.3663967 5.3676943 -0.12844476 -0.09884895 -0.010458345 -0.043345612 0.5 -70.467057 13.977966 -5.9004046 0.18299668 0.3805802 0.18251144 1 10 2 -1.0703195e-05 -0.00062367387 0.0002674114 39 -1 2000.0001 0.00043216129 -8.236645e-05 0.00023928673 34 -1 2000.0001 
7.8916643 1.7197378 2.2433893 0.42376737 -0.093908941 0.26704219 0.5 31.036197 442.91021 -5.8407901 -0.2158891 0.10702535 0.55812562 1 10 1 4.0682672e-05 -6.446832e-06 -9.6183542e-06 43 -1 1982.6539 
5.4349433 7.9135485 1.2600474 0.36506327 -0.018278592 0.11468658 0.5 -11.708872 488.6154 41.346416 -0.65110067 1.2141658 -0.46225235 1 10 1 -2.36776e-05 -4.4079823e-05 -1.1875482e-05 22 -1 1999.8276 
16.339024 0.83030122 -0.46728712 0.00097475162 0.025375285 -0.010030902 0.5 19.846731 442.23085 42.217612 -0.18491382 0.22002572 -0.044125212 1 10 1 1.1468688e-05 -2.3230468e-06 2.3031822e-07 26 -1 1999.7156 
15.739194 8.2783773 1.1571014 0.66673249 0.14577323 -0.19904532 0.5 6.8627848 527.8277 46.324246 0.14011751 0.89896018 -0.072859259 1 10 1 -2.2373437e-06 3.6586118e-06 -5.1411083e-06 102 -1 1999.9522 
3.4018807 5.765474 8.5662097 4.4473381 -0.070438948 -0.13933746 0.5 41.888717 612.72632 84.749619 0.049683912 -0.25839563 0.26684471 1 10 1 2.0393262e-05 -3.6721759e-05 -8.6770812e-06 67 -1 1971.1371 
17.05886 0.73011802 8.8728544 4.7923336 -0.22685925 0.60922233 0.5 -33.655145 515.87015 -12.782062 -0.0038322708 0.47258008 -0.67121982 1 10 1 -1.3414497e-05 7.1860728e-06 7.4972626e-06 109 -1 1969.7393 
15.144422 4.3043885 8.6018299 4.1929689 -0.22304799 0.064760428 0.5 47.334208 458.66845 -37.001946 -0.28534468 1.4033868 0.15464502 1 10 1 2.1878091e-05 1.5756659e-05 -3.622417e-05 109 -1 1969.426 
1.4042804 5.4032808 9.5216987 4.964702 0.67932532 0.056297619 0.5 9.9281407 488.05299 38.641799 -0.45789601 0.043009111 -1.5736226 1 10 1 3.5501085e-05 -0.00010786495 -4.2209459e-05 98 -1 1992.5852 
4.3946305 1.0368599 5.0480299 2.4745201 0.0098639189 -0.19442686 0.5 17.426376 467.31019 21.682661 0.4108809 1.6672742 -0.10948168 1 10 1 -2.276239e-05 3.0247422e-06 1.3105356e-05 91 -1 1999.6514 
0.23385565 8.8534918 0.55666674 0.14539495 -0.034768957 -0.1015811 0.5 -12.579703 375.22573 1.1042797 0.23016174 -0.6356026 0.12297401 1 10 1 -1.9193142e-06 -1.8170048e-05 7.3841614e-06 100 -1 1989.1512 
7.9885339 8.8330545 5.8318919 3.247105 0.32815255 -0.34856988 0.5 55.296106 486.00789 -6.5073354 -0.87049606 0.64782559 1.1587695 1 10 1 -9.2515e-06 -1.3484388e-05 2.0618994e-05 112 -1 1951.4389 
9.6998887 3.8536779 4.8837454 2.1792003 0.093713944 -0.073822792 0.5 14.504256 471.05105 -40.670589 -0.3326937 1.1684492 0.52993333 1 10 1 4.100013e-06 -2.6518036e-06 -2.218259e-06 91 -1 1974.0417 
10.212856 5.1962773 9.5807464 4.7185881 0.086034784 0.082088933 0.5 4.7934056 460.42103 1.9953564 1.2627586 0.516397 1.0168743 1 10 1 -4.9719756e-05 2.3688812e-06 -4.3714618e-05 122 -1 1990.1333 
3.2627654 1.3372611 4.1228445 2.1310437 -0.66615288 0.082959536 0.5 1.2242086 429.73656 31.092858 -1.383421 0.41466245 0.97831773 1 10 1 7.3687326e-05 -7.7818741e-05 8.5761212e-05 84 -1 1936.9232 
0.022516698 9.8735816 3.4693446 1.5847944 0.044846169 -0.24298931 0.5 -33.371601 603.03368 25.19665 0.3792544 -0.46247867 -1.9459164 1 10 1 -4.8482274e-05 1.6423517e-05 3.3415171e-05 74 -1 1999.7521 
1.2251854 6.798627 1.9766655 1.2207217 -0.31377885 -0.0076747334 0.5 -9.5298749 470.02878 -18.601181 -0.11011894 -0.82022409 0.23943863 1 10 1 0.00023559212 0.00037829099 -7.6427e-05 94 -1 2000.0001 
7.8419151 8.2478014 8.7405503 4.6408783 -0.20551603 0.097186956 0.5 16.588025 441.26529 -45.372842 1.5487242 0.23459335 1.1816303 1 10 1 -9.6066348e-06 -7.4242087e-06 -7.0918366e-07 81 -1 1993.756 
15.977521 6.5651915 0.40888739 0.45300422 -0.38510251 -0.16560993 0.5 22.876896 460.25814 24.198428 0.58712271 1.075941 -0.07161533 1 10 1 1.0701511e-06 -3.774316e-06 -2.5487354e-06 28 -1 1999.9642 
3.7736251 2.2167146 4.4325505 2.5307362 0.059935722 -0.58649375 0.5 -62.134651 519.05821 28.762716 -0.15171464 0.25755174 -0.89617923 1 10 1 -4.272744e-05 1.0801541e-05 7.3614231e-05 131 -1 1998.834 
1.5503071 9.8929294 5.3608543 3.3441834 -0.11992632 -0.16350636 0.5 -6.7341861 578.27016 -3.0048294 1.2345041 0.74825998 0.57198137 1 10 1 1.9597425e-06 6.9838595e-07 -6.7834193e-06 112 -1 1996.768 
8.5735854 1.0812939 2.6914035 1.1218556 0.0026322623 0.34440679 0.5 -11.720107 509.01596 -15.541252 0.61094268 1.0872932 0.043442718 1 10 1 1.5240924e-05 -1.6278192e-05 -4.3249985e-05 118 -1 1999.7687 
5.7057832 2.002665 3.313686 2.0093411 -0.21123903 0.50124845 0.5 -28.275203 492.02664 -4.2815708 -0.34911551 0.081047577 -1.0469696 1 10 1 -4.8332618e-06 1.7592656e-05 3.4040613e-05 90 -1 1993.1483 
11.380846 3.6326644 2.0618448 0.78489742 -0.50440807 -0.2255346 0.5 20.073729 536.18227 -20.959235 0.76974016 -1.1844141 -0.5654324 1 10 1 -3.2398581e-05 -4.6336689e-05 3.6203178e-05 69 -1 1994.2528 
18.171682 4.9468122 2.1194834 1.0875766 0.08894388 0.36198415 0.5 25.248215 464.86081 -11.016218 -1.4452773 -0.14449656 0.27008349 1 10 1 -1.6935386e-05 -1.0041488e-06 9.7194541e-06 41 -1 1995.3172 
11.953739 8.6788249 0.64024802 0.42217818 0.015636497 -0.090187406 0.5 51.461093 555.0391 -10.428784 0.84203721 0.37109618 0.81511176 1 10 1 -9.2171044e-06 3.7402886e-06 -6.4351362e-07 9 -1 1999.5755 
5.9593707 7.1170367 0.57942912 0.64843706 0.16282779 -0.077410808 0.5 19.777333 581.93055 55.217361 -0.177308 0.75053772 1.0024292 1 10 1 2.1667418e-06 -4.3282737e-07 -2.0246123e-06 22 -1 1999.9405 
5.0894358 1.4715445 6.9663603 4.170862 -0.12492726 0.24082255 0.5 0.031430476 475.96987 20.067996 0.38651506 0.24873198 0.88462065 1 10 1 5.7138611e-05 2.5141921e-05 4.3596483e-06 91 -1 1999.7628 
11.697415 6.1946386 8.5669717 4.7390364 0.1282905 0.55354088 0.5 -17.466325 351.48198 15.256661 1.2774867 1.0865815 0.032453775 1 10 1 -2.2918102e-05 -0.00010725851 3.5321747e-05 110 -1 1989.5016 
18.634925 2.8681113 1.7820139 1.0563465 -0.44397213 -0.28387142 0.5 -43.236131 482.98393 9.163995 -0.59231392 1.0074092 -1.4459218 1 10 1 7.1001491e-06 -8.2081639e-06 4.947205e-08 90 -1 1993.527 
10.07372 7.9317611 2.5900291 1.1357126 -0.10060636 -0.1015016 0.5 -39.917717 529.58264 -27.193297 -0.36263265 0.84441354 -1.3836099 1 10 1 1.211367e-05 1.5997266e-05 -1.2459575e-05 114 -1 1993.681 
16.326111 1.7752949 -0.091770551 0.080975371 -0.01110933 -0.015069476 0.5 -71.342544 551.02539 -19.228014 -0.22621524 -0.11152107 0.18547775 1 10 1 -1.4384657e-05 -4.3161303e-07 -6.4265787e-08 120 -1 1999.5059 
6.6843811 2.3505813 0.72301803 0.06112505 -0.41363425 -0.003921719 0.5 -34.18735 486.68995 26.758655 0.77796011 1.3958686 -1.2739243 1 10 1 -1.5870156e-05 -5.3261933e-06 -4.9809765e-06 50 -1 1999.9698 
0.86484921 6.6872165 3.47575 2.3661751 0.073967318 -0.19302452 0.5 -41.970256 505.93756 -9.9523754 0.16397243 1.5393036 0.11521567 1 10 1 -1.5996667e-05 5.5315811e-06 7.2382777e-06 94 -1 1999.9852 
9.1719625 5.4539739 3.4098045 1.2607063 -0.51020117 0.36659814 0.5 8.2521487 563.45044 -6.1740566 0.90087657 0.26951069 -0.63846226 1 10 1 2.0356241e-05 4.7263986e-06 -5.4643198e-06 150 -1 1977.8164 
15.308516 5.7253715 2.058577 1.0130802 0.43332633 -0.1506464 0.5 -37.113284 548.50318 -15.84338 -0.87086042 0.60751073 0.50611204 1 10 1 -1.1478649e-05 -1.806814e-06 1.263003e-05 69 -1 1977.9048 
4.526796 2.1490804 5.3226664 2.4262998 0.48907927 -0.012878494 0.5 20.367144 420.98488 -1.2936286 0.44178013 1.3769059 0.064298324 1 10 1 -9.2802598e-06 -3.4261168e-06 1.506226e-05 126 -1 1999.5985 
14.763434 4.2243084 4.8962144 3.1559148 0.74594427 0.62183284 0.5 29.367668 485.11464 18.708605 0.84186983 2.131309 -1.0836258 1 10 1 6.819583e-06 3.258439e-05 3.3992331e-06 116 -1 1999.8386 
13.983734 4.5465457 3.3126013 1.8218878 0.17671386 0.54132573 0.5 8.0263274 553.63553 14.06722 0.21647768 0.91080585 0.88665519 1 10 1 7.3178256e-06 -6.0449724e-06 -3.0881439e-05 69 -1 1996.0915 
7.9463839 4.3972592 4.3871649 2.1395793 0.43442708 -0.13539716 0.5 8.3925743 515.9668 -47.028609 0.44561482 0.60481511 -0.18503128 1 10 1 -1.6369453e-05 -4.8134209e-06 2.7027404e-06 129 -1 1997.5507 
4.8067015 1.8233486 3.7127424 1.8269418 -0.066902374 0.11791184 0.5 57.212383 504.13089 -29.110923 -0.032990626 -0.41726641 0.92922397 1 10 1 -9.1906268e-05 6.2773568e-06 -0.00020424581 139 -1 2000.0001 
19.766656 0.096395798 -0.39030278 -0.026547672 -0.13793272 0.14384725 0.5 52.95654 403.99998 11.781513 0.6083394 0.028503667 0.10014603 1 10 1 0.00016941156 -1.6340788e-05 -8.0679438e-05 0 -1 2000.0001 
12.214187 1.8180138 4.1510876 1.941169 0.49582002 0.26449831 0.5 -1.3638208 580.88529 -30.363695 -0.9531421 -1.0493123 -1.1954803 1 10 1 -7.713014e-06 -2.1935362e-05 1.3380714e-05 138 -1 1995.5839 
5.032061 3.0937841 9.358194 4.4600867 -0.057615241 0.59241785 0.5 7.7360079 517.71545 4.4500188 0.93167063 0.20362275 -0.31673871 1 10 1 2.7630795e-05 -9.6653692e-06 -1.1735945e-05 144 -1 1915.9736 
13.262854 2.3123436 1.53728 0.49673845 0.029800284 -0.68588443 0.5 21.49254 528.57655 -54.890181 0.36214348 0.029428612 -0.6658294 1 10 1 -8.5434078e-06 -7.0304254e-07 -1.2411914e-06 72 -1 1999.1149 
10.756464 7.8310148 4.6254409 2.6789495 0.057632805 -0.39743168 0.5 22.015171 451.94474 -13.532817 0.84246684 0.87817503 0.57662858 1 10 1 -4.1355271e-05 -2.6148136e-06 5.6194259e-05 104 -1 1981.0357 
8.3900534 5.171601 0.43319473 -0.029543525 -0.12817312 0.51306278 0.5 1.8613727 510.22557 -22.039486 -0.080305771 0.86768859 0.27453613 1 10 1 3.2296586e-05 -3.1551688e-06 1.0201695e-05 40 -1 1999.9407 
19.730915 7.2629189 3.7996976 2.1904169 -0.61059944 0.33820462 0.5 -40.698104 538.32304 -22.336779 -0.12246902 -0.35443981 0.08024518 1 10 1 -6.7523285e-06 -6.2082995e-06 1.6986394e-05 147 -1 1987.7535 
14.151892 0.024763594 5.391959 2.7060143 0.30268428 0.42966944 0.5 3.0179184 505.02554 21.221461 -0.24265462 -0.39007116 -0.47869704 1 10 1 9.1561447e-06 6.9310823e-06 -1.1988421e-05 137 -1 1989.3048 
19.783537 8.2507744 5.2741177 2.9982316 0.041443888 -0.37401934 0.5 -0.077492451 585.92963 19.990352 0.23949289 1.3561762 1.0634025 1 10 1 3.2346659e-05 -2.7144675e-05 -4.391662e-05 112 -1 1998.7654 
1.667479 7.4125635 2.8585276 1.2693692 -0.16108331 0.15256158 0.5 -72.538582 501.90712 -3.1699244 0.034195705 0.62015878 0.59488081 1 10 1 -2.709048e-07 -8.3605995e-07 2.2649093e-06 94 -1 1999.9675 
5.4838286 9.1866864 3.5889263 1.5630045 -0.067201885 0.5102823 0.5 12.985769 553.15424 -0.91212539 1.8907891 0.10319311 -0.059199277 1 10 1 1.1498029e-05 5.8125806e-06 -3.2332333e-06 106 -1 1985.8997 
16.140004 3.9093362 3.2290746 1.73353 -0.30863891 -0.065142545 0.5 7.0934085 538.15134 21.844056 1.383358 0.0089154265 -0.1843861 1 10 1 1.5404893e-05 -4.7591688e-06 4.8342202e-05 69 -1 1999.9407 
12.840233 3.038743 5.5467662 3.0614037 -0.055744245 0.031643296 0.5 -10.573017 381.57887 -33.493069 1.0247191 0.63076315 -0.33656523 1 10 1 9.5143191e-06 4.1287709e-05 3.4234385e-05 97 -1 1998.8737 
12.978831 0.19472034 6.3388541 3.0673307 0.078502356 0.33445816 0.5 23.977454 511.13445 -5.7827284 -0.12257399 0.475264 0.062356918 1 10 1 -2.0631862e-05 -3.2679721e-05 2.9985479e-05 126 -1 1985.1599 
12.776296 0.56384628 4.3944764 2.2690568 0.083410688 -0.043268722 0.5 -70.372888 533.96702 16.724219 -0.068094826 0.20444966 -0.81345793 1 10 1 1.5334131e-05 3.5678753e-06 6.8176215e-07 165 -1 1997.2089 
16.290615 3.1603742 0.5050555 0.22460743 -0.21850488 0.23583245 0.5 -78.869101 486.42336 70.21613 0.13034308 0.73744952 -0.10830731 1 10 1 3.5197795e-06 -9.2391611e-06 -2.0009322e-05 146 -1 1996.7098 
14.884741 6.7351614 4.5635147 2.1522791 0.14632276 0.050782045 0.5 60.694281 532.27261 21.762695 2.2343849 0.12010995 0.59408875 1 10 1 4.4968625e-05 1.7118265e-05 5.8331555e-06 156 -1 1960.1341 
19.97501 4.3367689 6.3700554 3.2581732 0.34517195 0.090382391 0.5 -3.1742741 495.61373 11.388669 0.26972876 0.90253021 -0.025969348 1 10 1 -1.7674948e-05 -1.0051757e-05 1.2502339e-05 80 -1 1999.5832 
19.566087 6.1798096 0.37963841 -0.11677281 0.083098359 -0.02557583 0.5 30.168767 424.58717 1.3977883 0.39401136 -0.0020244339 -0.58779394 1 10 1 -2.8389112e-06 -4.2073496e-06 -3.8550642e-06 31 -1 1999.9938 
7.2015919 8.435757 0.9767968 0.52864841 0.5055052 -0.31092378 0.5 -0.3412525 514.29989 1.1883066 0.029396112 0.60343555 -0.73908593 1 10 1 2.6956993e-05 1.6549891e-05 -4.6225053e-06 22 -1 1997.3888 
3.0818441 6.5670995 0.64061551 0.36281491 0.17308689 0.077919576 0.5 -39.244115 452.68381 42.640704 -0.84795187 0.0041841832 0.49962797 1 10 1 1.5207866e-05 -1.8153953e-05 -1.7903583e-05 13 -1 1999.9968 
12.983015 0.97355531 7.9144157 4.1463949 -0.22148111 0.021943342 0.5 60.04286 436.85303 23.434474 0.19926826 1.2492623 0.88759662 1 10 1 8.8300447e-06 9.5019863e-06 9.0676624e-06 91 -1 1989.0121 
19.756841 2.3479722 7.358593 4.1225881 0.13416847 -0.6435964 0.5 16.233464 455.02849 28.803434 0.50689766 0.81545904 -0.11056302 1 10 1 -1.6166165e-05 1.0352587e-06 3.0201498e-05 130 -1 1970.0895 
3.885675 6.3177238 7.8268599 4.3761293 -0.045714879 0.07362914 0.5 3.4535895 456.64886 35.892753 0.54143284 0.1597105 1.0614866 1 10 1 -3.6695572e-05 0.00016406594 7.6932339e-05 122 -1 1999.6909 
2.1910346 3.1909773 6.2237584 3.1316808 0.31234469 0.11326444 0.5 -15.978682 495.6601 24.432271 0.0089435475 1.3484438 0.12574093 1 10 1 -1.5852285e-05 -3.8900671e-06 1.3819633e-05 154 -1 1986.0881 
18.453592 1.8771657 2.0599431 0.89303739 -0.34448263 0.10656854 0.5 -16.487674 497.42213 17.307553 0.22279131 0.56964506 0.062081243 1 10 1 -7.2839831e-06 1.2469106e-06 6.4345376e-07 146 -1 1999.7551 
14.367467 8.2984437 7.4997822 3.9613538 0.30670473 -0.063626441 0.5 -87.576764 472.12515 -88.291476 0.31311978 -1.8456403 0.17573762 1 10 1 -3.8380476e-05 -4.495196e-06 4.4470367e-05 181 -1 1956.7777 
13.296828 9.9398059 7.5008871 3.6071691 -0.64478621 -0.034354778 0.5 34.458769 473.07953 -30.825151 0.19102074 -0.50136948 1.6441991 1 10 1 1.0887385e-05 1.3815749e-05 -7.5564304e-05 179 -1 1992.6256 
0.52090993 5.1782138 9.0162732 4.7662862 0.24680134 -0.12445586 0.5 -19.372727 518.76532 1.8576127 2.5015706 -0.52464835 0.0012133672 1 10 1 -7.7591257e-06 -3.3338431e-05 2.6820444e-05 125 -1 1999.9052 
17.020983 7.8923076 10.138987 5.6680232 0.012551355 -0.79124356 0.5 50.161793 565.77628 -65.170932 -0.4155914 0.26638712 -0.22763194 1 10 1 -7.4353909e-05 6.162573e-05 2.5585679e-05 98 -1 1988.9965 
12.282152 2.5701656 6.8486216 3.71765 0.09514937 -0.35216209 0.5 -35.647346 497.05428 -4.8577131 -0.69726164 0.30690158 0.51308655 1 10 1 9.2644302e-06 2.869602e-07 -6.2907226e-06 92 -1 1991.989 
2.5015525 7.4432895 7.3749744 3.5134808 -0.061459948 0.024185553 0.5 -6.6858937 516.8523 -10.675746 -0.13604175 0.59084245 0.79944035 1 10 1 -5.4781811e-06 1.5102247e-05 -5.1627906e-05 181 -1 1996.8625 
1.365555 2.4749857 6.6206045 3.9316789 0.60537189 -0.54400173 0.5 5.2533225 560.37495 -38.316033 -0.78651703 0.73999676 0.66543534 1 10 1 -3.1038759e-05 4.4387864e-06 4.0487037e-05 91 -1 1963.0396 
16.520124 1.7016878 7.8442435 4.406846 0.20477729 0.056799814 0.5 19.86909 463.89012 -21.556215 -1.2734218 -1.4988667 -0.0046368757 1 10 1 -6.5204659e-06 2.1504228e-06 -3.8146757e-07 165 -1 1976.5947 
3.2617702 0.37203116 2.7112705 1.6131846 -0.083755269 0.19174368 0.5 8.6454128 522.54496 -39.321324 0.015251956 0.63023836 0.081195727 1 10 1 -1.288301e-08 -3.7741992e-06 2.3986054e-06 73 -1 1999.4941 
6.0229866 1.0890216 3.0594125 1.2206539 0.42298447 0.34694738 0.5 32.546609 509.66755 6.6723375 0.32292594 -0.39885201 0.17692563 1 10 1 6.0339373e-06 -2.1793499e-06 1.7251618e-05 139 -1 1999.9374 