restart_version 2
name H20A22L0.5M0.5B0.5
xmin 0 xmax 20 ymin 0 ymax 10 zmin 0 zmax 24
dt 0.0001 t 2000.0001 tmax 2000 save_count 500000
dim 3 gravity 0.37460659 0 -0.92718385
options_fstat 0 options_data 0 options_ene 1 options_restart 1
Species 1
k 200000 disp 25 kt 57142.857 dispt 25 mu 0.5 rho 1.9098593 dim_particle 3
Walls 1
numFiniteWalls 0 normal 0 0 -1 position 1.7
WallsPeriodic 2
normal 1 0 0 pos_left 0 pos_right 20 shift 20 0 0
normal 0 1 0 pos_left 0 pos_right 10 shift 0 10 0
Particles 5033
17.471301 3.7581637 -0.19286969 0 0 0 0.25 0 0 0 0 0 0 0 0 0 
18.059105 6.5907872 -0.56700958 0 0 0 0.25 0 0 0 0 0 0 0 0 0 
0.36746831 1.3145205 -0.23419274 0 0 0 0.25 0 0 0 0 0 0 0 0 0 
2.9495715 9.2597717 -0.36192418 0 0 0 0.25 0 0 0 0 0 0 0 0 0 
6.7577487 6.1309862 -0.086706866 0 0 0 0.25 0 0 0 0 0 0 0 0 0 
10.504405 9.3016271 -0.38123764 0 0 0 0.25 0 0 0 0 0 0 0 0 0 
7.6005575 0.075906645 -0.2017389 0 0 0 0.25 0 0 0 0 0 0 0 0 0 
19.157214 3.9340151 -0.279492 0 0 0 0.25 0 0 0 0 0 0 0 0 0 
10.963026 6.5174368 -0.13364347 0 0 0 0.25 0 0 0 0 0 0 0 0 0 
10.961921 0.49235295 -0.4380757 0 0 0 0.25 0 0 0 0 0 0 0 0 0 
15.169103 6.1889863 -0.58749098 0 0 0 0.25 0 0 0 0 0 0 0 0 0 
5.504964 5.7926002 -0.24766011 0 0 0 0.25 0 0 0 0 0 0 0 0 0 
13.553553 1.4807801 -0.43754118 0 0 0 0.25 0 0 0 0 0 0 0 0 0 
16.029782 6.6383217 -0.16874476 0 0 0 0.25 0 0 0 0 0 0 0 0 0 
7.0983031 3.1148052 -0.10000105 0 0 0 0.25 0 0 0 0 0 0 0 0 0 
2.5488572 9.29363 -0.056518152 0 0 0 0.25 0 0 0 0 0 0 0 0 0 
7.0703593 5.7411849 -0.068825038 0 0 0 0.25 0 0 0 0 0 0 0 0 0 
11.458822 1.9295162 -0.56132986 0 0 0 0.25 0 0 0 0 0 0 0 0 0 
4.0910116 0.27453782 -0.32773217 0 0 0 0.25 0 0 0 0 0 0 0 0 0 
9.0757197 6.8263922 -0.26564227 0 0 0 0.25 0 0 0 0 0 0 0 0 0 
6.5457907 0.031580752 -0.27813422 0 0 0 0.25 0 0 0 0 0 0 0 0 0 
6.9577872 0.21109456 -0.059080452 0 0 0 0.25 0 0 0 0 0 0 0 0 0 
11.642424 0.57543093 -0.30210012 0 0 0 0.25 0 0 0 0 0 0 0 0 0 
10.701931 6.7950225 -0.45738481 0 0 0 0.25 0 0 0 0 0 0 0 0 0 
19.789419 5.9607126 -0.36674893 0 0 0 0.25 0 0 0 0 0 0 0 0 0 
18.360978 7.7367381 -0.38220735 0 0 0 0.25 0 0 0 0 0 0 0 0 0 
9.2518927 4.538258 -0.52466726 0 0 0 0.25 0 0 0 0 0 0 0 0 0 
0.67641396 7.7024932 -0.29209755 0 0 0 0.25 0 0 0 0 0 0 0 0 0 
8.2896991 3.2306739 -0.55475838 0 0 0 0.25 0 0 0 0 0 0 0 0 0 
10.19516 1.8526945 -0.39823731 0 0 0 0.25 0 0 0 0 0 0 0 0 0 
2.3881871 3.2902752 -0.14089841 0 0 0 0.25 0 0 0 0 0 0 0 0 0 
8.088313 7.7530118 -0.43255336 0 0 0 0.25 0 0 0 0 0 0 0 0 0 
15.220478 3.2693487 -0.49184084 0 0 0 0.25 0 0 0 0 0 0 0 0 0 
15.337731 8.8558982 -0.474156 0 0 0 0.25 0 0 0 0 0 0 0 0 0 
6.2192362 3.9594547 -0.21063032 0 0 0 0.25 0 0 0 0 0 0 0 0 0 
8.060047 8.7741003 -0.15742349 0 0 0 0.25 0 0 0 0 0 0 0 0 0 
7.1433699 7.8717138 -0.43730694 0 0 0 0.25 0 0 0 0 0 0 0 0 0 
4.2021418 6.5347779 -0.11986169 0 0 0 0.25 0 0 0 0 0 0 0 0 0 
13.327831 1.0444439 -0.33792975 0 0 0 0.25 0 0 0 0 0 0 0 0 0 
12.025339 7.220333 -0.39357538 0 0 0 0.25 0 0 0 0 0 0 0 0 0 
7.940369 4.0245927 -0.45889953 0 0 0 0.25 0 0 0 0 0 0 0 0 0 
8.5208376 5.0184748 -0.47256972 0 0 0 0.25 0 0 0 0 0 0 0 0 0 
16.030738 2.6743543 -0.13411271 0 0 0 0.25 0 0 0 0 0 0 0 0 0 
6.5123247 2.6155418 -0.41116376 0 0 0 0.25 0 0 0 0 0 0 0 0 0 
7.5157225 0.69955451 -0.061158942 0 0 0 0.25 0 0 0 0 0 0 0 0 0 
5.427065 2.1818495 -0.40396883 0 0 0 0.25 0 0 0 0 0 0 0 0 0 
4.8474684 8.2452464 -0.21612827 0 0 0 0.25 0 0 0 0 0 0 0 0 0 
7.418505 6.7200972 -0.22762666 0 0 0 0.25 0 0 0 0 0 0 0 0 0 
16.467976 4.7766143 -0.28957022 0 0 0 0.25 0 0 0 0 0 0 0 0 0 
8.2991677 9.874892 -0.012480483 0 0 0 0.25 0 0 0 0 0 0 0 0 0 
10.104561 4.6702454 -0.50343447 0 0 0 0.25 0 0 0 0 0 0 0 0 0 
11.0324 9.0525602 -0.21094635 0 0 0 0.25 0 0 0 0 0 0 0 0 0 
16.796168 5.0513385 -0.54807327 0 0 0 0.25 0 0 0 0 0 0 0 0 0 
2.2124909 7.6623925 -0.52535033 0 0 0 0.25 0 0 0 0 0 0 0 0 0 
9.1993544 8.0821971 -0.2921386 0 0 0 0.25 0 0 0 0 0 0 0 0 0 
0.064841361 6.8737857 -0.20240484 0 0 0 0.25 0 0 0 0 0 0 0 0 0 
7.304259 9.9107923 -0.56903732 0 0 0 0.25 0 0 0 0 0 0 0 0 0 
0.15778973 3.5310805 -0.26334822 0 0 0 0.25 0 0 0 0 0 0 0 0 0 
9.0911439 0.091970243 -0.25568313 0 0 0 0.25 0 0 0 0 0 0 0 0 0 
9.4430369 7.6019273 -0.4119856 0 0 0 0.25 0 0 0 0 0 0 0 0 0 
14.909391 4.8605235 -0.20765545 0 0 0 0.25 0 0 0 0 0 0 0 0 0 
18.894438 2.0840593 -0.056704174 0 0 0 0.25 0 0 0 0 0 0 0 0 0 
3.9886491 6.7378913 -0.58059321 0 0 0 0.25 0 0 0 0 0 0 0 0 0 
4.3514332 8.2293763 -0.33855812 0 0 0 0.25 0 0 0 0 0 0 0 0 0 
9.5895104 9.6123609 -0.25253776 0 0 0 0.25 0 0 0 0 0 0 0 0 0 
3.4899423 9.1399861 -0.48214729 0 0 0 0.25 0 0 0 0 0 0 0 0 0 
10.370926 3.3457082 -0.21947752 0 0 0 0.25 0 0 0 0 0 0 0 0 0 
9.2812206 3.9876899 -0.52750989 0 0 0 0.25 0 0 0 0 0 0 0 0 0 
3.6118042 3.7409688 -0.36835475 0 0 0 0.25 0 0 0 0 0 0 0 0 0 
1.5369147 6.4441782 -0.13089978 0 0 0 0.25 0 0 0 0 0 0 0 0 0 
18.372584 0.49037734 -0.51819944 0 0 0 0.25 0 0 0 0 0 0 0 0 0 
6.7588661 6.4948619 -0.43160257 0 0 0 0.25 0 0 0 0 0 0 0 0 0 
10.416681 3.7106109 -0.55812223 0 0 0 0.25 0 0 0 0 0 0 0 0 0 
7.530977 3.4341889 -0.051293928 0 0 0 0.25 0 0 0 0 0 0 0 0 0 
3.3322174 9.3337248 -0.048255332 0 0 0 0.25 0 0 0 0 0 0 0 0 0 
15.597916 1.670421 -0.14622618 0 0 0 0.25 0 0 0 0 0 0 0 0 0 
2.3283448 6.9482605 -0.18082678 0 0 0 0.25 0 0 0 0 0 0 0 0 0 
12.561802 3.7424284 -0.58062476 0 0 0 0.25 0 0 0 0 0 0 0 0 0 
15.022214 8.595679 -0.17323433 0 0 0 0.25 0 0 0 0 0 0 0 0 0 
18.808128 8.4844041 -0.44440336 0 0 0 0.25 0 0 0 0 0 0 0 0 0 
15.883932 0.11017778 -0.32339734 0 0 0 0.25 0 0 0 0 0 0 0 0 0 
11.21611 2.6182058 -0.025091546 0 0 0 0.25 0 0 0 0 0 0 0 0 0 
19.20263 6.6734008 -0.21135484 0 0 0 0.25 0 0 0 0 0 0 0 0 0 
8.2664666 2.3022687 -0.13798113 0 0 0 0.25 0 0 0 0 0 0 0 0 0 
4.6197953 2.2717723 -0.069206197 0 0 0 0.25 0 0 0 0 0 0 0 0 0 
19.326011 9.5801523 -0.4873601 0 0 0 0.25 0 0 0 0 0 0 0 0 0 
6.9574008 4.8562236 -0.18450974 0 0 0 0.25 0 0 0 0 0 0 0 0 0 
6.9006169 1.0370583 -0.51472478 0 0 0 0.25 0 0 0 0 0 0 0 0 0 
14.762762 0.036131435 -0.42078971 0 0 0 0.25 0 0 0 0 0 0 0 0 0 
11.667402 3.385568 -0.34315916 0 0 0 0.25 0 0 0 0 0 0 0 0 0 
1.6869608 4.3041017 -0.081933109 0 0 0 0.25 0 0 0 0 0 0 0 0 0 
4.3212999 8.7229507 -0.48867749 0 0 0 0.25 0 0 0 0 0 0 0 0 0 
14.052394 4.2442435 -0.42349789 0 0 0 0.25 0 0 0 0 0 0 0 0 0 
12.503968 5.3445878 -0.43112225 0 0 0 0.25 0 0 0 0 0 0 0 0 0 
10.057768 8.5067685 -0.40396705 0 0 0 0.25 0 0 0 0 0 0 0 0 0 
12.146221 8.8655719 -0.56616792 0 0 0 0.25 0 0 0 0 0 0 0 0 0 
1.3007691 4.0181979 -0.2196504 0 0 0 0.25 0 0 0 0 0 0 0 0 0 
11.444963 5.0065301 -0.54884966 0 0 0 0.25 0 0 0 0 0 0 0 0 0 
7.7355106 6.3637074 -0.073934877 0 0 0 0.25 0 0 0 0 0 0 0 0 0 
8.7307537 3.8701319 -0.079905227 0 0 0 0.25 0 0 0 0 0 0 0 0 0 
5.3993731 4.1837218 -0.035701389 0 0 0 0.25 0 0 0 0 0 0 0 0 0 
12.929641 9.7225078 -0.10347871 0 0 0 0.25 0 0 0 0 0 0 0 0 0 
10.916836 0.006019792 -0.57797833 0 0 0 0.25 0 0 0 0 0 0 0 0 0 
11.512197 5.7806775 -0.08843368 0 0 0 0.25 0 0 0 0 0 0 0 0 0 
14.983178 3.7064185 -0.34049217 0 0 0 0.25 0 0 0 0 0 0 0 0 0 
18.928317 9.8227403 -0.3060311 0 0 0 0.25 0 0 0 0 0 0 0 0 0 
5.7965842 3.7366038 -0.36704297 0 0 0 0.25 0 0 0 0 0 0 0 0 0 
1.9059329 8.0586765 -0.53205172 0 0 0 0.25 0 0 0 0 0 0 0 0 0 
19.538917 0.89631603 -0.49948003 0 0 0 0.25 0 0 0 0 0 0 0 0 0 
14.635398 5.30927 -0.050987454 0 0 0 0.25 0 0 0 0 0 0 0 0 0 
16.388613 1.2709742 -0.34493123 0 0 0 0.25 0 0 0 0 0 0 0 0 0 
10.22128 5.1541071 -0.19118921 0 0 0 0.25 0 0 0 0 0 0 0 0 0 
11.349747 8.6671945 -0.14206981 0 0 0 0.25 0 0 0 0 0 0 0 0 0 
19.334698 7.9053105 -0.51709579 0 0 0 0.25 0 0 0 0 0 0 0 0 0 
5.7039864 8.9651038 -0.3444288 0 0 0 0.25 0 0 0 0 0 0 0 0 0 
14.086893 9.8145984 -0.17555314 0 0 0 0.25 0 0 0 0 0 0 0 0 0 
15.331831 9.3004645 -0.22390486 0 0 0 0.25 0 0 0 0 0 0 0 0 0 
5.0195206 3.3809962 -0.41328365 0 0 0 0.25 0 0 0 0 0 0 0 0 0 
12.65376 8.1567485 -0.30804565 0 0 0 0.25 0 0 0 0 0 0 0 0 0 
11.239341 5.190098 -0.12764981 0 0 0 0.25 0 0 0 0 0 0 0 0 0 
5.0279476 3.8493303 -0.58812708 0 0 0 0.25 0 0 0 0 0 0 0 0 0 
16.297043 5.2508823 -0.19654085 0 0 0 0.25 0 0 0 0 0 0 0 0 0 
18.509488 5.2647898 -0.19214899 0 0 0 0.25 0 0 0 0 0 0 0 0 0 
5.4088892 6.3165112 -0.10382339 0 0 0 0.25 0 0 0 0 0 0 0 0 0 
14.245173 6.8780688 -0.066184871 0 0 0 0.25 0 0 0 0 0 0 0 0 0 
15.81558 0.58966493 -0.4474021 0 0 0 0.25 0 0 0 0 0 0 0 0 0 
18.676712 7.3473226 -0.40137792 0 0 0 0.25 0 0 0 0 0 0 0 0 0 
15.371724 7.068039 -0.31595999 0 0 0 0.25 0 0 0 0 0 0 0 0 0 
2.134099 9.4953398 -0.26916913 0 0 0 0.25 0 0 0 0 0 0 0 0 0 
8.404909 1.148308 -0.014127801 0 0 0 0.25 0 0 0 0 0 0 0 0 0 
11.765752 8.5416064 -0.55726967 0 0 0 0.25 0 0 0 0 0 0 0 0 0 
0.99887381 5.0715196 -0.40985142 0 0 0 0.25 0 0 0 0 0 0 0 0 0 
15.411805 3.5762299 -0.11853999 0 0 0 0.25 0 0 0 0 0 0 0 0 0 
19.67886 6.5889407 -0.34338998 0 0 0 0.25 0 0 0 0 0 0 0 0 0 
19.182071 2.1514201 -0.46390969 0 0 0 0.25 0 0 0 0 0 0 0 0 0 
14.694678 6.6591137 -0.21252781 0 0 0 0.25 0 0 0 0 0 0 0 0 0 
12.526618 7.0583772 -0.23071355 0 0 0 0.25 0 0 0 0 0 0 0 0 0 
15.838104 4.9393205 -0.25219119 0 0 0 0.25 0 0 0 0 0 0 0 0 0 
5.289723 8.672038 -0.42261302 0 0 0 0.25 0 0 0 0 0 0 0 0 0 
13.69028 4.0843173 -0.10400285 0 0 0 0.25 0 0 0 0 0 0 0 0 0 
13.535912 6.1660382 -0.26183415 0 0 0 0.25 0 0 0 0 0 0 0 0 0 
5.3234146 3.7198285 -0.20621083 0 0 0 0.25 0 0 0 0 0 0 0 0 0 
8.8120242 5.1961832 -0.10713259 0 0 0 0.25 0 0 0 0 0 0 0 0 0 
0.4322868 8.1196854 -0.089522736 0 0 0 0.25 0 0 0 0 0 0 0 0 0 
3.8235742 5.0483852 -0.027785315 0 0 0 0.25 0 0 0 0 0 0 0 0 0 
2.7774476 6.9702998 -0.39938329 0 0 0 0.25 0 0 0 0 0 0 0 0 0 
19.932565 1.0589563 -0.23416113 0 0 0 0.25 0 0 0 0 0 0 0 0 0 
7.5512407 4.0724313 -0.1116384 0 0 0 0.25 0 0 0 0 0 0 0 0 0 
8.7855837 5.6892925 -0.18687099 0 0 0 0.25 0 0 0 0 0 0 0 0 0 
3.23683 1.1655193 -0.52432859 0 0 0 0.25 0 0 0 0 0 0 0 0 0 
18.268768 4.9289918 -0.50893261 0 0 0 0.25 0 0 0 0 0 0 0 0 0 
10.594013 0.80299818 -0.57261093 0 0 0 0.25 0 0 0 0 0 0 0 0 0 
9.8306539 8.3062556 -0.006276175 0 0 0 0.25 0 0 0 0 0 0 0 0 0 
11.716564 9.4527385 -0.52816576 0 0 0 0.25 0 0 0 0 0 0 0 0 0 
16.595138 7.7743351 -0.015957164 0 0 0 0.25 0 0 0 0 0 0 0 0 0 
12.830033 1.0278282 -0.39238306 0 0 0 0.25 0 0 0 0 0 0 0 0 0 
12.619133 4.8617383 -0.37285101 0 0 0 0.25 0 0 0 0 0 0 0 0 0 
13.655426 9.3590265 -0.23549883 0 0 0 0.25 0 0 0 0 0 0 0 0 0 
19.062149 2.636817 -0.46537707 0 0 0 0.25 0 0 0 0 0 0 0 0 0 
13.854387 0.89979936 -0.25126779 0 0 0 0.25 0 0 0 0 0 0 0 0 0 
0.030029304 9.0924313 -0.54933196 0 0 0 0.25 0 0 0 0 0 0 0 0 0 
15.617617 6.3620182 -0.23065781 0 0 0 0.25 0 0 0 0 0 0 0 0 0 
2.482517 6.4444786 -0.15293187 0 0 0 0.25 0 0 0 0 0 0 0 0 0 
14.631267 4.1199046 -0.27943427 0 0 0 0.25 0 0 0 0 0 0 0 0 0 
17.077887 9.0008191 -0.51073456 0 0 0 0.25 0 0 0 0 0 0 0 0 0 
1.8634485 1.0648468 -0.38793164 0 0 0 0.25 0 0 0 0 0 0 0 0 0 
17.144989 3.008031 -0.48707325 0 0 0 0.25 0 0 0 0 0 0 0 0 0 
18.808375 0.73793153 -0.583306 0 0 0 0.25 0 0 0 0 0 0 0 0 0 
1.3576852 2.8955401 -0.50174484 0 0 0 0.25 0 0 0 0 0 0 0 0 0 
17.924469 4.5674092 -0.48321956 0 0 0 0.25 0 0 0 0 0 0 0 0 0 
3.926643 8.0971231 -0.56939258 0 0 0 0.25 0 0 0 0 0 0 0 0 0 
19.414814 9.8025705 -0.048254693 0 0 0 0.25 0 0 0 0 0 0 0 0 0 
3.4737174 8.1348818 -0.36113749 0 0 0 0.25 0 0 0 0 0 0 0 0 0 
14.964237 1.0155982 -0.54866235 0 0 0 0.25 0 0 0 0 0 0 0 0 0 
12.23592 9.929411 -0.18822543 0 0 0 0.25 0 0 0 0 0 0 0 0 0 
1.2037278 0.460446 -0.56402524 0 0 0 0.25 0 0 0 0 0 0 0 0 0 
3.380585 8.7427051 -0.19880256 0 0 0 0.25 0 0 0 0 0 0 0 0 0 
19.760878 4.7298005 -0.10021806 0 0 0 0.25 0 0 0 0 0 0 0 0 0 
14.909332 5.8038977 -0.39816488 0 0 0 0.25 0 0 0 0 0 0 0 0 0 
3.3525781 9.6198462 -0.51310861 0 0 0 0.25 0 0 0 0 0 0 0 0 0 
0.10342292 0.24731149 -0.44109757 0 0 0 0.25 0 0 0 0 0 0 0 0 0 
18.523639 3.2617268 -0.18477134 0 0 0 0.25 0 0 0 0 0 0 0 0 0 
1.8382612 1.993498 -0.21426569 0 0 0 0.25 0 0 0 0 0 0 0 0 0 
7.8985262 1.8629994 -0.19309314 0 0 0 0.25 0 0 0 0 0 0 0 0 0 
10.52322 6.3462702 -0.32838408 0 0 0 0.25 0 0 0 0 0 0 0 0 0 
5.8295031 9.4633834 -0.5773787 0 0 0 0.25 0 0 0 0 0 0 0 0 0 
6.0258446 9.4947931 -0.11860812 0 0 0 0.25 0 0 0 0 0 0 0 0 0 
4.765673 1.7327169 -0.1885395 0 0 0 0.25 0 0 0 0 0 0 0 0 0 
12.851739 4.4294371 -0.27884124 0 0 0 0.25 0 0 0 0 0 0 0 0 0 
11.654953 2.8920822 -0.42213013 0 0 0 0.25 0 0 0 0 0 0 0 0 0 
14.578535 6.1176281 -0.10679807 0 0 0 0.25 0 0 0 0 0 0 0 0 0 
5.6253295 6.1840294 -0.53457212 0 0 0 0.25 0 0 0 0 0 0 0 0 0 
10.489911 5.3013469 -0.58627853 0 0 0 0.25 0 0 0 0 0 0 0 0 0 
19.790952 0.58018376 -0.20530248 0 0 0 0.25 0 0 0 0 0 0 0 0 0 
6.1976385 1.679184 -0.1928954 0 0 0 0.25 0 0 0 0 0 0 0 0 0 
16.677863 6.4543792 -0.4113324 0 0 0 0.25 0 0 0 0 0 0 0 0 0 
10.824265 4.3737195 -0.51568643 0 0 0 0.25 0 0 0 0 0 0 0 0 0 
1.8753059 9.9092512 -0.37713742 0 0 0 0.25 0 0 0 0 0 0 0 0 0 
7.9935851 0.86692385 -0.054395828 0 0 0 0.25 0 0 0 0 0 0 0 0 0 
9.7980269 1.63856 -0.18300423 0 0 0 0.25 0 0 0 0 0 0 0 0 0 
14.02058 1.2768797 -0.53448757 0 0 0 0.25 0 0 0 0 0 0 0 0 0 
0.12312336 5.4227627 -0.38133573 0 0 0 0.25 0 0 0 0 0 0 0 0 0 
4.9162632 2.1340607 -0.44740101 0 0 0 0.25 0 0 0 0 0 0 0 0 0 
6.7331365 7.1815193 -0.59255538 0 0 0 0.25 0 0 0 0 0 0 0 0 0 
6.0873303 8.556379 -0.50876296 0 0 0 0.25 0 0 0 0 0 0 0 0 0 
16.852254 6.8949251 -0.25100132 0 0 0 0.25 0 0 0 0 0 0 0 0 0 
0.68679494 7.1155719 -0.19265586 0 0 0 0.25 0 0 0 0 0 0 0 0 0 
8.7292142 3.003713 -0.47464644 0 0 0 0.25 0 0 0 0 0 0 0 0 0 
17.432115 7.978464 -0.35391419 0 0 0 0.25 0 0 0 0 0 0 0 0 0 
12.45322 6.0185164 -0.49763379 0 0 0 0.25 0 0 0 0 0 0 0 0 0 
10.433303 1.1985069 -0.31245104 0 0 0 0.25 0 0 0 0 0 0 0 0 0 
12.768802 2.9139186 -0.40109969 0 0 0 0.25 0 0 0 0 0 0 0 0 0 
9.3487075 2.6756803 -0.026608634 0 0 0 0.25 0 0 0 0 0 0 0 0 0 
9.5681078 9.1136392 -0.3172048 0 0 0 0.25 0 0 0 0 0 0 0 0 0 
16.499707 0.062057632 -0.32810101 0 0 0 0.25 0 0 0 0 0 0 0 0 0 
12.703188 1.5201992 -0.17799795 0 0 0 0.25 0 0 0 0 0 0 0 0 0 
11.157359 3.9767557 -0.35615996 0 0 0 0.25 0 0 0 0 0 0 0 0 0 
13.480057 7.3297851 -0.3681515 0 0 0 0.25 0 0 0 0 0 0 0 0 0 
3.403156 0.74012374 -0.27450614 0 0 0 0.25 0 0 0 0 0 0 0 0 0 
7.3850286 1.7122867 -0.30790594 0 0 0 0.25 0 0 0 0 0 0 0 0 0 
9.0455903 3.5857954 -0.34498802 0 0 0 0.25 0 0 0 0 0 0 0 0 0 
4.4803928 3.2177302 -0.21905845 0 0 0 0.25 0 0 0 0 0 0 0 0 0 
8.6578603 6.1178311 -0.41180663 0 0 0 0.25 0 0 0 0 0 0 0 0 0 
13.903248 4.7200887 -0.2618631 0 0 0 0.25 0 0 0 0 0 0 0 0 0 
16.945613 9.4835606 -0.52570589 0 0 0 0.25 0 0 0 0 0 0 0 0 0 
1.0358716 0.21806046 -0.16026091 0 0 0 0.25 0 0 0 0 0 0 0 0 0 
17.015899 6.071396 -0.29393785 0 0 0 0.25 0 0 0 0 0 0 0 0 0 
12.427571 3.2785693 -0.42051842 0 0 0 0.25 0 0 0 0 0 0 0 0 0 
8.2065398 4.6405608 -0.38261032 0 0 0 0.25 0 0 0 0 0 0 0 0 0 
11.975639 6.081631 -0.19133204 0 0 0 0.25 0 0 0 0 0 0 0 0 0 
15.319107 1.2584682 -0.20560901 0 0 0 0.25 0 0 0 0 0 0 0 0 0 
1.2253501 7.1829916 -0.1980545 0 0 0 0.25 0 0 0 0 0 0 0 0 0 
14.717741 7.7305416 -0.35931076 0 0 0 0.25 0 0 0 0 0 0 0 0 0 
16.978801 3.7735206 -0.10586582 0 0 0 0.25 0 0 0 0 0 0 0 0 0 
0.56261392 0.062397558 -0.22566094 0 0 0 0.25 0 0 0 0 0 0 0 0 0 
19.665538 4.4724424 -0.51802233 0 0 0 0.25 0 0 0 0 0 0 0 0 0 
14.298669 0.61987031 -0.46437931 0 0 0 0.25 0 0 0 0 0 0 0 0 0 
16.745834 9.6867164 -0.10773955 0 0 0 0.25 0 0 0 0 0 0 0 0 0 
19.340894 3.069546 -0.48632587 0 0 0 0.25 0 0 0 0 0 0 0 0 0 
11.692815 5.4009071 -0.36649057 0 0 0 0.25 0 0 0 0 0 0 0 0 0 
7.7286498 6.5163983 -0.56273389 0 0 0 0.25 0 0 0 0 0 0 0 0 0 
14.257524 8.4356753 -0.075275607 0 0 0 0.25 0 0 0 0 0 0 0 0 0 
9.653747 4.7270849 -0.29499973 0 0 0 0.25 0 0 0 0 0 0 0 0 0 
11.213058 7.758627 -0.40295274 0 0 0 0.25 0 0 0 0 0 0 0 0 0 
13.895665 5.7064715 -0.42406331 0 0 0 0.25 0 0 0 0 0 0 0 0 0 
3.8622287 7.9374196 -0.10012148 0 0 0 0.25 0 0 0 0 0 0 0 0 0 
17.017373 9.977594 -0.41057088 0 0 0 0.25 0 0 0 0 0 0 0 0 0 
4.6560041 6.2633631 -0.49494115 0 0 0 0.25 0 0 0 0 0 0 0 0 0 
2.0891522 0.64260286 -0.2392768 0 0 0 0.25 0 0 0 0 0 0 0 0 0 
7.1312676 2.1704426 -0.23865178 0 0 0 0.25 0 0 0 0 0 0 0 0 0 
12.597181 2.4522798 -0.48658803 0 0 0 0.25 0 0 0 0 0 0 0 0 0 
1.6189386 5.1890515 -0.58985228 0 0 0 0.25 0 0 0 0 0 0 0 0 0 
12.080276 3.6271331 -0.50843497 0 0 0 0.25 0 0 0 0 0 0 0 0 0 
13.829137 2.5677597 -0.1116961 0 0 0 0.25 0 0 0 0 0 0 0 0 0 
4.6332843 4.342967 -0.29233549 0 0 0 0.25 0 0 0 0 0 0 0 0 0 
3.9713217 3.1301322 -0.2397274 0 0 0 0.25 0 0 0 0 0 0 0 0 0 
2.9862613 6.6174009 -0.10243846 0 0 0 0.25 0 0 0 0 0 0 0 0 0 
13.684798 8.5801597 -0.003177124 0 0 0 0.25 0 0 0 0 0 0 0 0 0 
5.048157 4.8376517 -0.36720953 0 0 0 0.25 0 0 0 0 0 0 0 0 0 
5.8319358 0.17493287 -0.32583989 0 0 0 0.25 0 0 0 0 0 0 0 0 0 
8.6315013 7.2409005 -0.22099086 0 0 0 0.25 0 0 0 0 0 0 0 0 0 
3.0703788 5.5803232 -0.44402988 0 0 0 0.25 0 0 0 0 0 0 0 0 0 
15.724581 8.0811957 -0.34633735 0 0 0 0.25 0 0 0 0 0 0 0 0 0 
4.0771046 9.8394017 -0.082011067 0 0 0 0.25 0 0 0 0 0 0 0 0 0 
1.7097077 8.573902 -0.44455259 0 0 0 0.25 0 0 0 0 0 0 0 0 0 
17.02892 7.673606 -0.58368498 0 0 0 0.25 0 0 0 0 0 0 0 0 0 
4.2566632 5.2083624 -0.21965272 0 0 0 0.25 0 0 0 0 0 0 0 0 0 
6.0305364 5.7821894 -0.39336995 0 0 0 0.25 0 0 0 0 0 0 0 0 0 
17.163683 2.5088985 -0.56541371 0 0 0 0.25 0 0 0 0 0 0 0 0 0 
12.617283 6.4872024 -0.43993572 0 0 0 0.25 0 0 0 0 0 0 0 0 0 
18.545563 0.022995172 -0.55766481 0 0 0 0.25 0 0 0 0 0 0 0 0 0 
17.509327 2.3547227 -0.10990051 0 0 0 0.25 0 0 0 0 0 0 0 0 0 
1.4963583 7.7788556 -0.46819393 0 0 0 0.25 0 0 0 0 0 0 0 0 0 
8.5701974 0.20825293 -0.39406143 0 0 0 0.25 0 0 0 0 0 0 0 0 0 
17.979796 2.9741529 -0.22714406 0 0 0 0.25 0 0 0 0 0 0 0 0 0 
2.7099166 8.499398 -0.58444813 0 0 0 0.25 0 0 0 0 0 0 0 0 0 
13.352773 9.7586636 -0.36730897 0 0 0 0.25 0 0 0 0 0 0 0 0 0 
13.712124 7.7412696 -0.54369909 0 0 0 0.25 0 0 0 0 0 0 0 0 0 
4.552397 9.8071583 -0.23428598 0 0 0 0.25 0 0 0 0 0 0 0 0 0 
7.3451275 7.6537947 -0.035102008 0 0 0 0.25 0 0 0 0 0 0 0 0 0 
10.88423 1.36485 -0.17499189 0 0 0 0.25 0 0 0 0 0 0 0 0 0 
18.082536 0.72530747 -0.18557649 0 0 0 0.25 0 0 0 0 0 0 0 0 0 
9.3430431 5.9073005 -0.20545314 0 0 0 0.25 0 0 0 0 0 0 0 0 0 
11.336676 6.1963581 -0.34399323 0 0 0 0.25 0 0 0 0 0 0 0 0 0 
11.657366 7.566534 -0.52954293 0 0 0 0.25 0 0 0 0 0 0 0 0 0 
7.6152773 7.1379343 -0.41965647 0 0 0 0.25 0 0 0 0 0 0 0 0 0 
4.4275862 2.722729 -0.16754922 0 0 0 0.25 0 0 0 0 0 0 0 0 0 
11.809426 9.9770989 -0.44469886 0 0 0 0.25 0 0 0 0 0 0 0 0 0 
6.1454067 8.7075759 -0.035773671 0 0 0 0.25 0 0 0 0 0 0 0 0 0 
12.224875 8.3907945 -0.41408952 0 0 0 0.25 0 0 0 0 0 0 0 0 0 
5.2379494 9.1576355 -0.31518262 0 0 0 0.25 0 0 0 0 0 0 0 0 0 
8.0812853 3.1689624 -0.1046084 0 0 0 0.25 0 0 0 0 0 0 0 0 0 
15.14449 7.9342451 -0.19706797 0 0 0 0.25 0 0 0 0 0 0 0 0 0 
13.003328 7.3619909 -0.51603167 0 0 0 0.25 0 0 0 0 0 0 0 0 0 
4.1379801 3.5882713 -0.35312534 0 0 0 0.25 0 0 0 0 0 0 0 0 0 
9.6732192 5.5796882 -0.47110054 0 0 0 0.25 0 0 0 0 0 0 0 0 0 
1.2009825 1.7821522 -0.42971364 0 0 0 0.25 0 0 0 0 0 0 0 0 0 
15.693504 7.4812644 -0.29552023 0 0 0 0.25 0 0 0 0 0 0 0 0 0 
1.4632117 8.2076974 -0.20986049 0 0 0 0.25 0 0 0 0 0 0 0 0 0 
9.8949413 7.6174429 -0.19141627 0 0 0 0.25 0 0 0 0 0 0 0 0 0 
13.970156 8.9901689 -0.020353526 0 0 0 0.25 0 0 0 0 0 0 0 0 0 
11.155728 5.603812 -0.39567557 0 0 0 0.25 0 0 0 0 0 0 0 0 0 
12.813353 2.1052162 -0.19873824 0 0 0 0.25 0 0 0 0 0 0 0 0 0 
2.9895886 8.2244361 -0.27435389 0 0 0 0.25 0 0 0 0 0 0 0 0 0 
13.291842 8.4105019 -0.26116909 0 0 0 0.25 0 0 0 0 0 0 0 0 0 
15.815264 9.3923956 -0.3519714 0 0 0 0.25 0 0 0 0 0 0 0 0 0 
0.49375443 2.9441182 -0.024822451 0 0 0 0.25 0 0 0 0 0 0 0 0 0 
9.6866644 8.038486 -0.40395188 0 0 0 0.25 0 0 0 0 0 0 0 0 0 
6.7853504 9.2173877 -0.59037466 0 0 0 0.25 0 0 0 0 0 0 0 0 0 
18.142566 7.34582 -0.15973069 0 0 0 0.25 0 0 0 0 0 0 0 0 0 
12.814987 6.7033351 -0.028928383 0 0 0 0.25 0 0 0 0 0 0 0 0 0 
8.3768493 1.8543339 -0.34227455 0 0 0 0.25 0 0 0 0 0 0 0 0 0 
18.393084 2.925737 -0.53201234 0 0 0 0.25 0 0 0 0 0 0 0 0 0 
10.325709 7.1287028 -0.51989837 0 0 0 0.25 0 0 0 0 0 0 0 0 0 
8.3991101 4.23491 -0.16292521 0 0 0 0.25 0 0 0 0 0 0 0 0 0 
13.590456 3.473576 -0.48018763 0 0 0 0.25 0 0 0 0 0 0 0 0 0 
0.48850159 0.90142274 -0.51356632 0 0 0 0.25 0 0 0 0 0 0 0 0 0 
10.564404 4.8409218 -0.40450813 0 0 0 0.25 0 0 0 0 0 0 0 0 0 
13.079491 0.17145533 -0.27424758 0 0 0 0.25 0 0 0 0 0 0 0 0 0 
10.511315 8.3747241 -0.15427301 0 0 0 0.25 0 0 0 0 0 0 0 0 0 
3.2211001 4.1570666 -0.38989206 0 0 0 0.25 0 0 0 0 0 0 0 0 0 
14.889427 9.5558159 -0.49509284 0 0 0 0.25 0 0 0 0 0 0 0 0 0 
3.9232894 2.0939434 -0.43188579 0 0 0 0.25 0 0 0 0 0 0 0 0 0 
17.370127 4.5399089 -0.36588086 0 0 0 0.25 0 0 0 0 0 0 0 0 0 
6.028419 1.2051451 -0.28340631 0 0 0 0.25 0 0 0 0 0 0 0 0 0 
15.914285 3.433805 -0.28208841 0 0 0 0.25 0 0 0 0 0 0 0 0 0 
18.448577 9.1047199 -0.25332857 0 0 0 0.25 0 0 0 0 0 0 0 0 0 
10.987273 4.328234 -0.043898142 0 0 0 0.25 0 0 0 0 0 0 0 0 0 
16.174578 7.9091626 -0.48025602 0 0 0 0.25 0 0 0 0 0 0 0 0 0 
13.576131 5.1386186 -0.11454724 0 0 0 0.25 0 0 0 0 0 0 0 0 0 
14.875016 2.4769073 -0.25161232 0 0 0 0.25 0 0 0 0 0 0 0 0 0 
16.304876 0.52052294 -0.37070433 0 0 0 0.25 0 0 0 0 0 0 0 0 0 
14.553956 9.5815173 -0.12524088 0 0 0 0.25 0 0 0 0 0 0 0 0 0 
12.232031 7.9031132 -0.5447699 0 0 0 0.25 0 0 0 0 0 0 0 0 0 
1.1403146 4.4523815 -0.40866533 0 0 0 0.25 0 0 0 0 0 0 0 0 0 
6.5657903 3.5246379 -0.025924597 0 0 0 0.25 0 0 0 0 0 0 0 0 0 
9.6280935 0.58023378 -0.41254948 0 0 0 0.25 0 0 0 0 0 0 0 0 0 
0.059833224 7.8758683 -0.31709524 0 0 0 0.25 0 0 0 0 0 0 0 0 0 
12.113766 5.6515354 -0.48911593 0 0 0 0.25 0 0 0 0 0 0 0 0 0 
6.035338 7.6944916 -0.13806615 0 0 0 0.25 0 0 0 0 0 0 0 0 0 
3.9294138 5.7246909 -0.10829532 0 0 0 0.25 0 0 0 0 0 0 0 0 0 
14.813348 0.68269947 -0.20747115 0 0 0 0.25 0 0 0 0 0 0 0 0 0 
5.3446861 3.0029603 -0.45031274 0 0 0 0.25 0 0 0 0 0 0 0 0 0 
6.4788437 4.7748875 -0.064848973 0 0 0 0.25 0 0 0 0 0 0 0 0 0 
2.2652092 4.3791297 -0.21204404 0 0 0 0.25 0 0 0 0 0 0 0 0 0 
3.7003718 7.1759978 -0.39652476 0 0 0 0.25 0 0 0 0 0 0 0 0 0 
14.159485 9.3417994 -0.32108116 0 0 0 0.25 0 0 0 0 0 0 0 0 0 
4.126635 0.76423596 -0.11164585 0 0 0 0.25 0 0 0 0 0 0 0 0 0 
18.708458 1.9973693 -0.51243301 0 0 0 0.25 0 0 0 0 0 0 0 0 0 
15.605654 2.1825592 -0.27309509 0 0 0 0.25 0 0 0 0 0 0 0 0 0 
5.1481163 7.019639 -0.31027581 0 0 0 0.25 0 0 0 0 0 0 0 0 0 
1.3337909 5.217786 -0.068605229 0 0 0 0.25 0 0 0 0 0 0 0 0 0 
14.506624 5.5301131 -0.51414087 0 0 0 0.25 0 0 0 0 0 0 0 0 0 
14.083402 5.2388375 -0.15831933 0 0 0 0.25 0 0 0 0 0 0 0 0 0 
15.519358 9.7623379 -0.17760777 0 0 0 0.25 0 0 0 0 0 0 0 0 0 
16.514448 3.5894484 -0.17872856 0 0 0 0.25 0 0 0 0 0 0 0 0 0 
8.7335643 1.4454861 -0.36242252 0 0 0 0.25 0 0 0 0 0 0 0 0 0 
19.381688 6.206113 -0.21184052 0 0 0 0.25 0 0 0 0 0 0 0 0 0 
6.6641418 7.6558626 -0.38774971 0 0 0 0.25 0 0 0 0 0 0 0 0 0 
6.1074123 2.395874 -0.21325999 0 0 0 0.25 0 0 0 0 0 0 0 0 0 
8.7240684 9.4771972 -0.14191552 0 0 0 0.25 0 0 0 0 0 0 0 0 0 
3.550197 5.4435578 -0.27181711 0 0 0 0.25 0 0 0 0 0 0 0 0 0 
7.7136534 7.9662579 -0.16750401 0 0 0 0.25 0 0 0 0 0 0 0 0 0 
12.222186 1.4279202 -0.29151006 0 0 0 0.25 0 0 0 0 0 0 0 0 0 
4.243522 6.0672392 -0.29186957 0 0 0 0.25 0 0 0 0 0 0 0 0 0 
19.562788 7.0675434 -0.43577914 0 0 0 0.25 0 0 0 0 0 0 0 0 0 
10.22999 9.8982479 -0.45348141 0 0 0 0.25 0 0 0 0 0 0 0 0 0 
19.04734 1.1423664 -0.38399533 0 0 0 0.25 0 0 0 0 0 0 0 0 0 
5.754011 0.90200077 -0.5745564 0 0 0 0.25 0 0 0 0 0 0 0 0 0 
3.7604035 9.4920198 -0.25222678 0 0 0 0.25 0 0 0 0 0 0 0 0 0 
18.523163 0.96707605 -0.24255489 0 0 0 0.25 0 0 0 0 0 0 0 0 0 
9.8408088 2.685083 -0.11703521 0 0 0 0.25 0 0 0 0 0 0 0 0 0 
11.335963 2.4050161 -0.46758486 0 0 0 0.25 0 0 0 0 0 0 0 0 0 
4.1484728 7.0435397 -0.21862936 0 0 0 0.25 0 0 0 0 0 0 0 0 0 
3.5338407 7.4868797 -0.031787842 0 0 0 0.25 0 0 0 0 0 0 0 0 0 
13.069761 2.5213709 -0.31124836 0 0 0 0.25 0 0 0 0 0 0 0 0 0 
10.940911 6.0248003 -0.050882665 0 0 0 0.25 0 0 0 0 0 0 0 0 0 
11.76227 1.2328029 -0.3111944 0 0 0 0.25 0 0 0 0 0 0 0 0 0 
16.17142 7.4119318 -0.1661375 0 0 0 0.25 0 0 0 0 0 0 0 0 0 
16.647342 4.147725 -0.11482817 0 0 0 0.25 0 0 0 0 0 0 0 0 0 
1.9926973 4.7577737 -0.3918488 0 0 0 0.25 0 0 0 0 0 0 0 0 0 
18.905043 4.9113268 -0.57503654 0 0 0 0.25 0 0 0 0 0 0 0 0 0 
5.1991059 7.7349454 -0.30502622 0 0 0 0.25 0 0 0 0 0 0 0 0 0 
7.2470742 8.2185279 -0.048668551 0 0 0 0.25 0 0 0 0 0 0 0 0 0 
2.2609519 0.24215422 -0.48580888 0 0 0 0.25 0 0 0 0 0 0 0 0 0 
8.2241395 1.3824871 -0.41713711 0 0 0 0.25 0 0 0 0 0 0 0 0 0 
14.397834 9.7166537 -0.58054817 0 0 0 0.25 0 0 0 0 0 0 0 0 0 
11.062887 7.0203389 -0.19486214 0 0 0 0.25 0 0 0 0 0 0 0 0 0 
5.1915322 8.1525197 -0.58182193 0 0 0 0.25 0 0 0 0 0 0 0 0 0 
18.530119 5.729163 -0.47802607 0 0 0 0.25 0 0 0 0 0 0 0 0 0 
0.49047603 5.7920262 -0.32566486 0 0 0 0.25 0 0 0 0 0 0 0 0 0 
2.0362704 9.0047533 -0.27753856 0 0 0 0.25 0 0 0 0 0 0 0 0 0 
16.8708 1.2468592 -0.47462601 0 0 0 0.25 0 0 0 0 0 0 0 0 0 
13.162664 7.1852863 -0.0076244945 0 0 0 0.25 0 0 0 0 0 0 0 0 0 
6.3165157 4.5954581 -0.50241541 0 0 0 0.25 0 0 0 0 0 0 0 0 0 
17.652777 2.2712071 -0.58145624 0 0 0 0.25 0 0 0 0 0 0 0 0 0 
16.175162 5.5669415 -0.56425111 0 0 0 0.25 0 0 0 0 0 0 0 0 0 
2.1605311 3.7156097 -0.27224368 0 0 0 0.25 0 0 0 0 0 0 0 0 0 
6.8582227 9.7008308 -0.48569893 0 0 0 0.25 0 0 0 0 0 0 0 0 0 
6.8210987 8.6699955 -0.02554668 0 0 0 0.25 0 0 0 0 0 0 0 0 0 
17.928627 3.4412066 -0.054146289 0 0 0 0.25 0 0 0 0 0 0 0 0 0 
12.035645 3.0949753 -0.16917403 0 0 0 0.25 0 0 0 0 0 0 0 0 0 
3.1320551 1.8260371 -0.58083339 0 0 0 0.25 0 0 0 0 0 0 0 0 0 
6.3485594 6.2075766 -0.36360989 0 0 0 0.25 0 0 0 0 0 0 0 0 0 
1.3848975 9.1084916 -0.55391923 0 0 0 0.25 0 0 0 0 0 0 0 0 0 
13.220486 7.8087436 -0.45943373 0 0 0 0.25 0 0 0 0 0 0 0 0 0 
10.14841 2.2943277 -0.16866648 0 0 0 0.25 0 0 0 0 0 0 0 0 0 
5.7155154 1.772914 -0.31765914 0 0 0 0.25 0 0 0 0 0 0 0 0 0 
16.387682 8.3426549 -0.14321201 0 0 0 0.25 0 0 0 0 0 0 0 0 0 
15.429246 0.74068395 -0.13603282 0 0 0 0.25 0 0 0 0 0 0 0 0 0 
17.405784 9.6797045 -0.51243113 0 0 0 0.25 0 0 0 0 0 0 0 0 0 
17.413529 9.012917 -0.14022385 0 0 0 0.25 0 0 0 0 0 0 0 0 0 
18.945915 5.9133599 -0.25913301 0 0 0 0.25 0 0 0 0 0 0 0 0 0 
2.6289397 3.6509198 -0.43478336 0 0 0 0.25 0 0 0 0 0 0 0 0 0 
13.969314 1.7179608 -0.29236393 0 0 0 0.25 0 0 0 0 0 0 0 0 0 
19.363224 9.1380643 -0.25692984 0 0 0 0.25 0 0 0 0 0 0 0 0 0 
14.254227 6.4555523 -0.33332545 0 0 0 0.25 0 0 0 0 0 0 0 0 0 
7.8245477 5.562446 -0.53823072 0 0 0 0.25 0 0 0 0 0 0 0 0 0 
7.0654163 3.6495967 -0.13625293 0 0 0 0.25 0 0 0 0 0 0 0 0 0 
9.8099223 6.7367804 -0.46305322 0 0 0 0.25 0 0 0 0 0 0 0 0 0 
5.9859544 6.527448 -0.49076024 0 0 0 0.25 0 0 0 0 0 0 0 0 0 
11.141804 2.0254522 -0.18605074 0 0 0 0.25 0 0 0 0 0 0 0 0 0 
12.015219 4.4680478 -0.28189937 0 0 0 0.25 0 0 0 0 0 0 0 0 0 
15.182305 6.6050434 -0.30931316 0 0 0 0.25 0 0 0 0 0 0 0 0 0 
12.716974 5.1879945 -0.0067815992 0 0 0 0.25 0 0 0 0 0 0 0 0 0 
5.4915339 0.54170651 -0.3463966 0 0 0 0.25 0 0 0 0 0 0 0 0 0 
16.80171 0.45182718 -0.42783435 0 0 0 0.25 0 0 0 0 0 0 0 0 0 
10.635266 4.0131165 -0.22546864 0 0 0 0.25 0 0 0 0 0 0 0 0 0 
17.583213 2.7400161 -0.42212143 0 0 0 0.25 0 0 0 0 0 0 0 0 0 
19.173433 7.4117529 -0.473754 0 0 0 0.25 0 0 0 0 0 0 0 0 0 
13.226698 1.8919587 -0.38218807 0 0 0 0.25 0 0 0 0 0 0 0 0 0 
11.525288 4.5527909 -0.35325551 0 0 0 0.25 0 0 0 0 0 0 0 0 0 
6.6273584 7.259837 -0.081291194 0 0 0 0.25 0 0 0 0 0 0 0 0 0 
14.03276 3.706772 -0.46948529 0 0 0 0.25 0 0 0 0 0 0 0 0 0 
12.035124 8.7304255 -0.096904026 0 0 0 0.25 0 0 0 0 0 0 0 0 0 
5.1331105 6.1088541 -0.4824734 0 0 0 0.25 0 0 0 0 0 0 0 0 0 
13.254555 6.8738819 -0.38778915 0 0 0 0.25 0 0 0 0 0 0 0 0 0 
13.341658 0.56291446 -0.47210996 0 0 0 0.25 0 0 0 0 0 0 0 0 0 
4.0266572 4.5927374 -0.28837169 0 0 0 0.25 0 0 0 0 0 0 0 0 0 
19.166387 4.4316845 -0.51490677 0 0 0 0.25 0 0 0 0 0 0 0 0 0 
1.0481377 8.0163656 -0.41230446 0 0 0 0.25 0 0 0 0 0 0 0 0 0 
4.2080487 1.2040204 -0.34847454 0 0 0 0.25 0 0 0 0 0 0 0 0 0 
6.3358047 6.5729851 -0.022611829 0 0 0 0.25 0 0 0 0 0 0 0 0 0 
5.0713435 1.3223183 -0.1660513 0 0 0 0.25 0 0 0 0 0 0 0 0 0 
15.143881 7.4900798 -0.46153669 0 0 0 0.25 0 0 0 0 0 0 0 0 0 
12.200643 4.0121098 -0.19318586 0 0 0 0.25 0 0 0 0 0 0 0 0 0 
18.850492 7.8326646 -0.4160509 0 0 0 0.25 0 0 0 0 0 0 0 0 0 
9.0213799 3.1552306 -0.091876806 0 0 0 0.25 0 0 0 0 0 0 0 0 0 
8.2892848 2.7790417 -0.34036694 0 0 0 0.25 0 0 0 0 0 0 0 0 0 
18.691131 6.8038695 -0.38348173 0 0 0 0.25 0 0 0 0 0 0 0 0 0 
15.418363 5.8682674 -0.29370461 0 0 0 0.25 0 0 0 0 0 0 0 0 0 
10.971286 5.1664819 -0.56645039 0 0 0 0.25 0 0 0 0 0 0 0 0 0 
10.047584 3.9529075 -0.32351967 0 0 0 0.25 0 0 0 0 0 0 0 0 0 
19.496324 1.3336076 -0.26087744 0 0 0 0.25 0 0 0 0 0 0 0 0 0 
5.2005762 1.7230717 -0.43557891 0 0 0 0.25 0 0 0 0 0 0 0 0 0 
6.4778359 9.0112242 -0.25321516 0 0 0 0.25 0 0 0 0 0 0 0 0 0 
18.146337 3.3589207 -0.49949409 0 0 0 0.25 0 0 0 0 0 0 0 0 0 
15.069908 2.8000888 -0.57962585 0 0 0 0.25 0 0 0 0 0 0 0 0 0 
0.74773027 3.1562388 -0.39950404 0 0 0 0.25 0 0 0 0 0 0 0 0 0 
1.3297396 2.2435161 -0.28632904 0 0 0 0.25 0 0 0 0 0 0 0 0 0 
17.977685 8.2174078 -0.41667657 0 0 0 0.25 0 0 0 0 0 0 0 0 0 
10.061234 4.3952365 -0.088284948 0 0 0 0.25 0 0 0 0 0 0 0 0 0 
3.9545012 0.68714198 -0.57473862 0 0 0 0.25 0 0 0 0 0 0 0 0 0 
4.0949272 2.5614136 -0.50418905 0 0 0 0.25 0 0 0 0 0 0 0 0 0 
10.750688 7.3595174 -0.39165398 0 0 0 0.25 0 0 0 0 0 0 0 0 0 
10.168159 8.0291817 -0.26742513 0 0 0 0.25 0 0 0 0 0 0 0 0 0 
17.072232 3.5022515 -0.51532634 0 0 0 0.25 0 0 0 0 0 0 0 0 0 
6.4783709 1.4085587 -0.50585783 0 0 0 0.25 0 0 0 0 0 0 0 0 0 
14.302775 5.9878139 -0.50310272 0 0 0 0.25 0 0 0 0 0 0 0 0 0 
8.2471916 0.74419991 -0.47758484 0 0 0 0.25 0 0 0 0 0 0 0 0 0 
4.1355449 7.5704564 -0.31238094 0 0 0 0.25 0 0 0 0 0 0 0 0 0 
5.1828445 5.6217202 -0.58976868 0 0 0 0.25 0 0 0 0 0 0 0 0 0 
5.4801637 6.6827055 -0.47809107 0 0 0 0.25 0 0 0 0 0 0 0 0 0 
18.276145 7.0399672 -0.53188761 0 0 0 0.25 0 0 0 0 0 0 0 0 0 
19.006681 3.390572 -0.29838923 0 0 0 0.25 0 0 0 0 0 0 0 0 0 
17.656379 4.2160111 -0.11446418 0 0 0 0.25 0 0 0 0 0 0 0 0 0 