restart_version 2
name H20A28L2M0.5B0.5
xmin 0 xmax 20 ymin 0 ymax 10 zmin 0 zmax 24
dt 0.0001 t 2000.0001 tmax 2000 save_count 500000
dim 3 gravity 0.46947156 0 -0.88294759
options_fstat 0 options_data 0 options_ene 1 options_restart 2
Species 1
k 200000 disp 25 kt 57142.857 dispt 25 mu 0.5 rho 1.9098593 dim_particle 3
Walls 1
numFiniteWalls 0 normal 0 0 -1 position 1.7
WallsPeriodic 2
normal 1 0 0 pos_left 0 pos_right 20 shift 20 0 0
normal 0 1 0 pos_left 0 pos_right 10 shift 0 10 0
Particles 4067
19.330017 1.0144385 -1.4931023 0 0 0 1 0 0 0 0 0 0 0 0 0 
19.998067 4.801808 -1.6774446 0 0 0 1 0 0 0 0 0 0 0 0 0 
9.0009585 2.2610568 -0.7392901 0 0 0 1 0 0 0 0 0 0 0 0 0 
11.319671 5.3727791 -2.0989941 0 0 0 1 0 0 0 0 0 0 0 0 0 
5.4432148 0.69356462 -2.3006582 0 0 0 1 0 0 0 0 0 0 0 0 0 
2.4775488 2.183002 -0.97341932 0 0 0 1 0 0 0 0 0 0 0 0 0 
10.381533 3.856421 -0.96416921 0 0 0 1 0 0 0 0 0 0 0 0 0 
11.232541 0.3387141 -2.1629756 0 0 0 1 0 0 0 0 0 0 0 0 0 
10.273786 0.7403499 -0.46097249 0 0 0 1 0 0 0 0 0 0 0 0 0 
12.119962 9.1507635 -0.7747042 0 0 0 1 0 0 0 0 0 0 0 0 0 
17.507186 1.8130578 -1.1150478 0 0 0 1 0 0 0 0 0 0 0 0 0 
0.10339191 6.7847973 -1.8655902 0 0 0 1 0 0 0 0 0 0 0 0 0 
4.6265159 2.1817674 -1.1848395 0 0 0 1 0 0 0 0 0 0 0 0 0 
2.3793022 7.152178 -0.54923244 0 0 0 1 0 0 0 0 0 0 0 0 0 
9.618117 6.9437624 -0.24860092 0 0 0 1 0 0 0 0 0 0 0 0 0 
8.2963885 8.5273967 -1.9377969 0 0 0 1 0 0 0 0 0 0 0 0 0 
17.996162 9.5389345 -1.478369 0 0 0 1 0 0 0 0 0 0 0 0 0 
3.8480144 3.7084524 -2.2709868 0 0 0 1 0 0 0 0 0 0 0 0 0 
14.569038 4.5746731 -2.1100379 0 0 0 1 0 0 0 0 0 0 0 0 0 
11.60796 2.1562788 -1.2803502 0 0 0 1 0 0 0 0 0 0 0 0 0 
1.9033776 4.2527062 -1.9295815 0 0 0 1 0 0 0 0 0 0 0 0 0 
9.6787983 6.494031 -2.1903785 0 0 0 1 0 0 0 0 0 0 0 0 0 
5.3729973 8.2317838 -0.24498363 0 0 0 1 0 0 0 0 0 0 0 0 0 
7.1046979 4.352739 -1.8206174 0 0 0 1 0 0 0 0 0 0 0 0 0 
4.7818852 0.33002225 -0.44813685 0 0 0 1 0 0 0 0 0 0 0 0 0 
19.413485 8.3252937 -0.80739518 0 0 0 1 0 0 0 0 0 0 0 0 0 
16.273632 0.41309669 -1.9180405 0 0 0 1 0 0 0 0 0 0 0 0 0 
10.267362 8.575693 -2.1607585 0 0 0 1 0 0 0 0 0 0 0 0 0 
16.210608 7.4546657 -0.77787905 0 0 0 1 0 0 0 0 0 0 0 0 0 
1.4017444 3.9329842 -0.024649341 0 0 0 1 0 0 0 0 0 0 0 0 0 
14.559586 9.4823649 -1.5499246 0 0 0 1 0 0 0 0 0 0 0 0 0 
0.89243535 5.855513 -0.24304626 0 0 0 1 0 0 0 0 0 0 0 0 0 
6.5814665 9.3658123 -1.367215 0 0 0 1 0 0 0 0 0 0 0 0 0 
12.371518 4.0054793 -1.0762213 0 0 0 1 0 0 0 0 0 0 0 0 0 
5.3888749 3.9629039 -0.65259336 0 0 0 1 0 0 0 0 0 0 0 0 0 
11.885399 5.7239607 -0.17468586 0 0 0 1 0 0 0 0 0 0 0 0 0 
1.9694367 6.2128737 -2.2654843 0 0 0 1 0 0 0 0 0 0 0 0 0 
1.3240057 8.7162954 -1.2277861 0 0 0 1 0 0 0 0 0 0 0 0 0 
6.7173069 0.83747111 -0.046913899 0 0 0 1 0 0 0 0 0 0 0 0 0 
6.8644238 5.3678862 -0.068038272 0 0 0 1 0 0 0 0 0 0 0 0 0 
8.8201676 5.1330734 -1.0194902 0 0 0 1 0 0 0 0 0 0 0 0 0 
14.711867 4.213571 -0.15227394 0 0 0 1 0 0 0 0 0 0 0 0 0 
4.0050126 7.6781626 -1.5827513 0 0 0 1 0 0 0 0 0 0 0 0 0 
14.791158 1.0164942 -0.252422 0 0 0 1 0 0 0 0 0 0 0 0 0 
6.038574 7.6240352 -2.1355829 0 0 0 1 0 0 0 0 0 0 0 0 0 
3.4881521 1.0646865 -2.397689 0 0 0 1 0 0 0 0 0 0 0 0 0 
13.737693 5.9178694 -0.89791124 0 0 0 1 0 0 0 0 0 0 0 0 0 
13.374957 2.6600646 -2.1306228 0 0 0 1 0 0 0 0 0 0 0 0 0 
0.33497185 2.7112414 -1.1908701 0 0 0 1 0 0 0 0 0 0 0 0 0 
13.405396 2.5260049 -0.13938516 0 0 0 1 0 0 0 0 0 0 0 0 0 
7.0155577 2.7023384 -0.700436 0 0 0 1 0 0 0 0 0 0 0 0 0 
13.511428 7.7913334 -1.5279549 0 0 0 1 0 0 0 0 0 0 0 0 0 
11.586472 7.2319552 -1.4531329 0 0 0 1 0 0 0 0 0 0 0 0 0 
8.5291123 0.42952152 -1.3801095 0 0 0 1 0 0 0 0 0 0 0 0 0 
3.1602621 9.4798821 -1.2510768 0 0 0 1 0 0 0 0 0 0 0 0 0 
5.579762 5.770911 -1.5589688 0 0 0 1 0 0 0 0 0 0 0 0 0 
3.4988758 5.0669081 -0.7550967 0 0 0 1 0 0 0 0 0 0 0 0 0 
15.260754 2.8080827 -1.4761412 0 0 0 1 0 0 0 0 0 0 0 0 0 
8.8913668 3.5695487 -2.2570855 0 0 0 1 0 0 0 0 0 0 0 0 0 
7.6871037 6.7628575 -1.2367601 0 0 0 1 0 0 0 0 0 0 0 0 0 
16.633641 6.0268704 -2.1026496 0 0 0 1 0 0 0 0 0 0 0 0 0 
9.4548971 8.9255459 -0.35693579 0 0 0 1 0 0 0 0 0 0 0 0 0 
17.026194 4.6232216 -0.74438735 0 0 0 1 0 0 0 0 0 0 0 0 0 
18.138275 6.7163885 -0.89904905 0 0 0 1 0 0 0 0 0 0 0 0 0 
18.508556 3.495914 -1.478946 0 0 0 1 0 0 0 0 0 0 0 0 0 
1.0529106 0.8638742 -0.49695421 0 0 0 1 0 0 0 0 0 0 0 0 0 
13.108013 0.83602468 -1.3585504 0 0 0 1 0 0 0 0 0 0 0 0 0 
9.2105742 5.3081644 9.1293715 8.2225796 0.57800509 0.85391984 0.5 52.892936 760.94499 4.4187511 1.7568698 -2.7997615 0.45812611 1 10 1 -3.9775997e-05 -8.0012573e-06 3.6986596e-06 35 -1 866.4214 
13.570961 3.2341587 18.356694 13.013038 -0.69386237 0.35924867 0.5 10.081517 707.07646 51.635022 -1.6686087 -0.1505858 0.33699873 1 10 1 1.1573517e-05 1.2608899e-05 -4.076327e-06 8 -1 1151.1947 
2.3158226 0.7089789 10.098979 8.8388658 -0.2814549 0.22302507 0.5 -69.180344 843.49429 33.623394 -1.8176423 1.3381322 -0.080011035 1 10 1 2.8342948e-06 2.8875369e-06 2.7240218e-07 43 -1 1557.2081 
2.4858587 3.7456698 15.425233 12.515746 0.57811675 -0.61265567 0.5 3.1136808 563.894 7.2198617 -0.41753866 -0.23221634 -0.11629802 1 10 1 -0.00010726795 -2.1114303e-05 1.8903623e-05 67 -1 1860.4826 
3.0230803 3.9875628 12.406107 10.022878 0.17155751 0.77151849 0.5 39.288345 824.87585 -20.722267 0.11706261 -0.74640634 1.0198697 1 10 1 0.00013595291 1.3293252e-05 -5.9341837e-05 67 -1 1679.1085 
8.0768996 0.20752155 19.08322 13.735675 0.34978149 -0.050132295 0.5 -3.3166969 586.94239 43.781165 -0.027102771 1.6691848 0.35845425 1 10 0 
4.5069926 8.7949903 15.936448 12.201006 0.38663365 0.51263247 0.5 -24.897517 812.38803 10.791007 -0.42010649 -1.4479812 -0.11551481 1 10 1 9.9170071e-06 1.9638055e-05 -2.7432987e-05 72 -1 1787.2326 
3.2551711 6.3570537 4.5469994 4.2098443 -0.6037386 -1.1799681 0.5 -11.092701 838.93777 -19.50721 4.487651 3.325043 0.16000489 1 10 1 4.7939875e-05 -4.7980337e-05 -1.8236404e-05 73 -1 1535.4519 
4.168328 1.5202279 1.1108559 0.46155696 0.63023128 -0.56766221 0.5 -2.6714235 812.19551 -51.30641 -0.94516527 1.3558654 1.1490136 1 10 1 -3.8313669e-05 7.8573493e-05 -3.2484214e-05 35 -1 1356.7348 
3.0336971 7.5944882 18.924636 13.506377 0.54975336 0.64933828 0.5 -41.639004 580.93973 5.8346092 -0.99698359 0.39943337 0.46184186 1 10 1 9.9136238e-06 -2.8633149e-06 -1.9614938e-06 67 -1 1576.6427 
16.014702 7.9744208 2.5130174 2.0902574 0.11710065 1.2385322 0.5 -35.054716 720.85826 13.774544 0.6579414 1.4010355 1.0876857 1 10 1 -2.4107162e-05 1.4226038e-05 8.130418e-06 74 -1 1912.3302 
5.7663727 7.8951028 7.3131217 6.8345345 -0.036334074 -0.21220715 0.5 43.528337 563.35624 -12.015532 -0.46453525 -0.1692207 -0.28501115 1 10 1 7.7389231e-05 -6.7089356e-05 -1.0448289e-05 75 -1 1971.8055 
6.6881451 3.7687244 6.7412406 5.7115788 0.12924183 -0.21220234 0.5 -52.293282 778.77189 30.855753 0.35437377 1.3201166 0.43851753 1 10 1 1.1410281e-05 2.7188101e-05 4.5508983e-06 74 -1 1964.8279 
4.1993846 0.036510634 8.1131793 7.0884234 0.51812843 0.88002081 0.5 6.7822147 824.44496 39.59859 -1.5991322 0.55743053 -0.5751584 1 10 1 -1.2242382e-05 1.2077695e-05 7.5584288e-06 74 -1 1941.7892 
11.805104 2.5016136 4.8680694 4.6452023 -0.96365182 0.31165235 0.5 33.115938 822.80326 -3.5977195 0.81761796 0.44076453 0.47322022 1 10 1 3.725197e-05 0.00012514482 -2.1070798e-05 74 -1 1923.9246 
8.2670172 8.0930704 1.2769441 0.30887793 -0.12833752 0.16317938 0.5 -9.1129421 791.71102 -48.785487 -0.2097062 -0.65122622 -0.58538527 1 10 1 -2.1648967e-05 -4.1292453e-06 5.5088919e-06 25 -1 1993.0196 
4.4184961 2.7823881 14.409751 11.366657 0.20893227 0.22221122 0.5 -26.010385 675.09147 28.004961 -1.3574195 0.83343135 -1.3968511 1 10 1 -6.0629676e-05 9.7549826e-05 4.4942362e-05 70 -1 1917.3406 
19.904906 6.711648 2.5920162 2.343332 0.58352234 0.2386398 0.5 -25.321522 767.73397 25.292344 1.3326826 3.485565 0.4238407 1 10 1 -3.1471735e-05 8.0803211e-06 1.5295755e-05 77 -1 1952.103 
8.5648479 5.5678603 19.410703 15.143224 0.033824843 -0.64861522 0.5 20.90788 614.74579 52.548519 1.1549517 0.41616446 0.84011684 1 10 1 8.2666027e-06 4.8561092e-06 3.2463764e-05 68 -1 1855.3349 
19.319887 6.5424525 20.484099 14.549502 -0.23693931 0.53835804 0.5 10.965317 613.97742 14.228274 -0.28764704 0.018158352 -0.30742658 1 10 1 -6.907164e-05 -5.7152619e-06 3.8573978e-05 76 -1 1985.9024 
17.407714 2.8164421 4.2778847 3.4905696 0.52542719 0.41866932 0.5 -9.7301919 774.7989 -5.7358081 0.71594504 0.84746122 -0.541156 1 10 1 7.9436312e-06 5.6564942e-06 -2.8422718e-05 80 -1 1926.9618 
5.027296 7.8324907 6.619574 6.4512518 -0.46625234 -0.7996718 0.5 -6.7406112 769.92163 -20.038359 -0.058940326 0.3258063 -0.04922189 1 10 1 1.2358421e-05 5.0685879e-06 -1.322223e-05 78 -1 1999.9439 
7.7675016 8.3261326 8.4133124 7.8084938 0.22476459 0.18408039 0.5 72.591599 877.32551 -76.612292 -0.95519478 0.052885052 -0.12086334 1 10 1 1.2050371e-05 -1.1293157e-05 -9.4938334e-06 88 -1 1917.5776 
5.1725253 9.8441041 1.6492961 1.3043726 0.096079126 0.44794768 0.5 -21.032181 781.61609 -20.613642 -1.5796823 0.15912642 2.1636125 1 10 1 -3.0208171e-05 1.4383097e-05 2.8339075e-05 9 -1 1985.0648 
17.661968 4.141847 17.178316 13.230425 0.15490409 0.2802672 0.5 28.545886 509.21557 -5.6227928 -1.666799 0.36760263 -0.30945156 1 10 1 6.3640263e-06 -4.8635102e-06 -2.9141226e-05 72 -1 1928.5582 
4.0606675 1.2598388 15.027421 11.690667 -0.25111107 0.070617799 0.5 17.834642 633.32204 -42.868991 0.1100712 -1.0118409 -0.10137959 1 10 1 1.9167315e-06 7.7839756e-07 -4.9022087e-07 73 -1 1977.8333 
19.13222 6.3101649 0.14842939 0.39796764 0.26008868 -0.0078264421 0.5 3.4360868 728.68843 14.552782 -1.2587868 1.3016014 -0.46838249 1 10 1 -2.2958026e-05 5.1929923e-06 2.3796333e-05 63 -1 1999.9998 
6.335045 0.67302036 14.578153 12.296252 0.29146147 -0.83305749 0.5 -2.7735745 754.5231 -58.187365 0.93617928 -1.1099437 -1.6724736 1 10 1 3.732587e-05 7.577235e-05 -4.6430833e-05 73 -1 1969.2708 
7.0664766 2.1065806 6.1054366 5.0726502 0.19065241 -0.39456035 0.5 -18.647123 686.90154 -37.055846 -1.7658534 0.72557155 0.86593262 1 10 1 0.00012461049 0.00015684691 2.6876051e-05 75 -1 1974.3124 
17.113572 2.8569275 12.949994 10.817319 -0.27838406 0.14409386 0.5 36.852045 543.22991 -24.497001 0.20255837 2.7041614 -0.42995739 1 10 1 -2.6643184e-05 2.3208812e-06 7.9454334e-06 91 -1 1969.812 
6.1951896 2.9019177 10.25982 9.1861348 0.24242755 0.33854674 0.5 -68.536081 792.53907 62.911672 -0.62421719 0.55930741 -0.10238408 1 10 1 8.409234e-06 6.5011208e-05 -3.0971491e-05 69 -1 1985.3787 
2.0199472 6.4250601 14.400809 11.187839 -0.15566249 -0.24503736 0.5 -38.191586 707.41824 4.1126101 1.1451399 3.1028507 0.1822488 1 10 1 2.03478e-05 -1.6447525e-05 2.3019439e-05 86 -1 1943.3149 
7.1101397 1.878221 2.8053834 2.6689166 -1.0265432 -0.38095155 0.5 -16.666083 765.06833 -23.720472 0.63629187 0.30166223 0.11178847 1 10 1 -2.2905203e-05 -9.1929367e-06 -5.1730559e-06 75 -1 1996.1028 
11.224203 8.268086 6.0008122 5.894903 0.14819526 -0.75856607 0.5 15.467591 825.19343 0.27503013 0.10397675 -0.94066653 -1.2206775 1 10 1 2.1149821e-06 7.6992621e-06 -4.1862671e-06 78 -1 1986.6085 
19.675641 6.2362303 13.190451 10.940581 0.012792164 -0.050406671 0.5 14.550885 626.71266 7.5803492 0.32370321 0.84344482 1.2378161 1 10 1 6.3111251e-06 8.8193781e-07 -5.7712606e-07 98 -1 1995.1516 
5.67425 1.7966069 4.9296839 5.2876085 0.021656287 -0.30243178 0.5 -34.301503 775.98261 -22.247083 1.5133545 0.98854648 0.51218144 1 10 1 -0.00025649097 -0.00012414034 2.8768639e-05 87 -1 1988.7385 
5.4136613 4.8288632 12.715879 9.8220943 -0.41358865 0.42005985 0.5 10.733223 716.63216 -9.3199752 -0.17427816 0.6630616 -0.58351034 1 10 1 -1.0960684e-05 4.8044538e-06 -2.0139266e-05 71 -1 1992.9391 
4.8418824 8.8683847 16.894243 13.02294 -0.16431295 0.44994225 0.5 15.994015 609.49459 16.764014 -0.331601 0.9573354 0.026167648 1 10 1 9.9654356e-06 -2.213007e-05 7.9033685e-07 73 -1 1999.8745 
13.046977 8.9002974 0.40108411 0.46520793 0.3389702 -0.35633233 0.5 33.917056 784.79525 24.429392 0.60808964 0.16207469 -1.5203603 1 10 1 4.179422e-06 -1.5086891e-06 -2.825852e-06 9 -1 1999.6053 
0.79007172 9.0969496 7.0177899 5.9019779 -0.52826641 0.57456644 0.5 27.099561 759.0695 14.50957 1.3478068 0.69980118 0.56051049 1 10 1 -6.8670205e-05 3.6761683e-05 2.3531009e-05 95 -1 1959.8772 
1.910356 4.6331635 11.413294 9.8701008 0.61090215 0.015792726 0.5 -26.573801 545.32492 21.507984 0.42985891 0.030360979 0.22631732 1 10 1 0.00015744841 5.7543254e-05 0.00011023134 71 -1 1997.3123 
10.192789 6.8909531 10.899772 9.1024563 -0.10118466 0.013813379 0.5 -24.250488 816.95406 10.802001 1.7991654 -0.33490155 1.3203462 1 10 1 -7.1546848e-05 8.2819524e-05 4.3810949e-06 99 -1 1869.6548 
19.183907 0.056269478 2.429056 1.8582269 -0.64792653 0.17572976 0.5 -36.294732 777.89084 -53.969868 -2.2931718 2.097868 -1.5338124 1 10 1 1.5652112e-05 -1.3782342e-05 -4.4198197e-06 65 -1 1966.2435 
19.70531 2.4988199 20.249876 15.201239 -0.48202127 -0.39535305 0.5 -14.048912 676.4896 36.272889 0.089607296 0.83805065 0.63146564 1 10 1 1.4758536e-05 3.6229525e-05 2.2983003e-05 72 -1 1966.0337 
1.1088422 7.4507215 9.5652703 8.823449 -0.15839636 -0.060716215 0.5 -30.362861 619.9425 -9.7395757 -0.12123606 2.0312528 -1.196524 1 10 1 2.6921685e-05 3.363279e-06 -3.1668217e-06 86 -1 1928.3117 
9.3663901 0.19856946 9.3206332 7.573362 -0.042382167 -0.47352314 0.5 -10.197661 709.6983 15.56327 -0.36892304 -2.0631498 0.76303368 1 10 1 -3.6230728e-05 1.5912351e-05 6.1451717e-05 80 -1 1988.9189 
14.69341 2.4629202 15.86852 11.651934 0.14624689 -0.041615289 0.5 4.4264713 737.1706 -7.775408 0.12336825 1.1481689 -2.4552116 1 10 1 -8.8728909e-05 -7.5522922e-05 1.6816448e-05 74 -1 1727.7176 
12.340301 8.555819 11.184998 9.1878014 0.30291463 0.14601751 0.5 -12.45785 850.24355 7.5864903 -0.54335056 -1.50196 0.40947456 1 10 1 -1.4322903e-06 7.8240746e-07 4.5215787e-06 112 -1 1868.5754 
13.32078 8.6963019 15.14188 12.430462 -0.052072661 0.053129579 0.5 -7.0300819 772.71934 -26.944476 -1.1370085 -0.61109485 -0.34696619 1 10 1 2.2278185e-06 1.4145906e-05 -4.2596902e-06 98 -1 1865.4982 
13.514003 0.17587866 7.5548191 7.2000677 -0.2156604 -0.013057826 0.5 51.647195 767.34501 -2.75944 -1.3079423 0.80372355 -1.5131108 1 10 1 6.7328359e-06 -5.4051575e-05 6.0890143e-05 79 -1 1968.2635 
3.3446524 0.58859547 -0.10330135 -0.11033022 -0.030669053 -0.51972897 0.5 43.073007 814.30944 26.673113 -0.1291083 -0.04430857 0.036470417 1 10 1 -4.4643209e-07 -6.8332911e-06 3.2501037e-06 24 -1 1999.9838 
9.3217317 6.7542208 12.022057 9.5224398 -0.47940995 -0.39065391 0.5 15.062101 760.8157 -14.067816 -0.35131982 -0.22582975 -1.0828856 1 10 1 -3.8055815e-05 -0.00028566486 -1.67854e-05 111 -1 1941.5615 
9.0844874 3.4330535 15.138862 11.712507 0.32049518 -0.071304329 0.5 -5.0214923 693.24369 45.007098 0.085621609 0.013978175 0.5514932 1 10 1 -1.3999547e-05 -2.6296486e-05 -1.099095e-05 107 -1 1980.0708 
18.569941 8.3824476 8.5293225 8.0090112 0.44117406 -0.24738669 0.5 -44.848392 610.58825 -14.318694 -1.1804649 0.053351812 -1.2355937 1 10 1 4.5831772e-06 2.4035467e-06 5.4792448e-06 116 -1 1990.9237 
7.7817439 1.8614038 9.7237714 9.1326836 -0.20077282 -0.1724774 0.5 13.42306 869.21957 -15.112967 -0.039172792 0.89875272 -0.49219245 1 10 1 -9.5287607e-06 7.6928795e-06 -1.0889928e-06 83 -1 1906.737 
6.6228013 7.2365151 0.028067799 0.17293096 -0.12333707 -0.063825615 0.5 33.309703 778.18811 -23.943021 0.81636873 1.0311062 0.52554956 1 10 1 2.3211171e-05 2.3422854e-05 -3.2859142e-06 22 -1 1998.6807 
4.8569839 2.0345094 13.476196 11.191961 0.044929741 -0.10110166 0.5 32.640494 784.37705 -27.439895 -0.74558571 0.68900313 0.028745886 1 10 1 4.0788552e-06 -7.9352507e-06 1.094802e-06 113 -1 1984.267 
12.715785 0.53708446 14.380124 12.423934 0.29037585 -0.31010388 0.5 37.87252 651.81595 8.0832779 1.0402324 1.673567 0.65544937 1 10 1 1.356401e-05 2.9668167e-06 -3.9718696e-05 114 -1 1953.7406 
3.2408659 3.4349435 2.7438549 3.1822808 -0.37287603 0.040555993 0.5 -20.419447 879.39449 -11.149944 -3.0179114 1.6950118 0.51243786 1 10 1 1.6696706e-05 4.5793241e-06 -2.9131296e-06 99 -1 1986.7609 
1.9073575 0.52811371 13.693345 10.661749 0.40210338 0.38321415 0.5 -18.550801 506.88058 -31.287576 -1.6271889 3.0914457 0.58145842 1 10 1 -5.3437869e-05 -1.0894743e-05 1.6444998e-05 94 -1 1993.5008 
5.6456776 2.6117481 5.5226266 4.6412903 -0.024341498 -0.096336293 0.5 -46.380053 783.35307 -26.043581 0.98840652 1.384131 -0.91250745 1 10 1 3.787957e-05 2.9920266e-06 -1.8827054e-05 87 -1 1992.3898 
2.9872415 4.0309433 14.269765 11.287412 0.3445388 -0.031254197 0.5 28.645379 741.99594 -82.316302 -0.71874091 -0.25722503 0.87288435 1 10 1 4.1658086e-05 -3.9071421e-05 1.0192346e-06 96 -1 1986.9784 
16.070959 8.6479325 13.606364 10.701985 0.23870337 -0.49468574 0.5 -29.451348 745.27506 33.170936 0.19960693 -1.0968888 0.70936506 1 10 1 -1.0980715e-05 -1.7211827e-05 2.3556281e-06 94 -1 1976.2684 
12.304074 8.1302732 6.3968518 5.2961233 0.85244635 -0.36389906 0.5 -17.391932 805.94434 19.71892 1.7241798 -1.4897354 0.32663781 1 10 1 1.6806411e-05 0.00010927955 9.3870156e-06 100 -1 1999.384 
17.59401 8.1116279 -1.1798594 0.014093671 0.082561842 0.042392527 0.5 11.084935 29.110113 48.81037 -0.524217 0.23165557 -0.059851463 1 10 1 -8.1501481e-06 -8.0387839e-06 0 -1 0 1999.8291 
10.272025 9.0980223 16.701008 13.513435 -0.19069449 -0.07314407 0.5 41.913818 779.80992 -35.581412 0.035377726 0.78102578 -0.3653083 1 10 1 -3.0006123e-05 -1.2973707e-05 -4.4354056e-05 92 -1 1972.8315 
3.2732136 7.0871382 14.833262 11.415179 0.039977153 0.86368113 0.5 -75.104607 623.46859 28.853173 -1.6587487 -0.0051079127 -0.48739238 1 10 1 1.871026e-05 -8.0026609e-05 5.2118813e-05 98 -1 1997.9428 
13.782053 4.1350791 12.58879 10.474633 0.11968452 0.47062767 0.5 -10.176905 699.28374 10.445832 -0.46819596 0.88331555 0.59343383 1 10 1 0.0001185602 3.1478322e-05 -6.1424427e-05 96 -1 1971.4942 
1.6622647 3.4576112 16.800888 12.802907 0.1395846 0.059520967 0.5 24.858868 745.74529 64.737255 0.77158237 0.077453865 -0.54759003 1 10 1 4.9678958e-05 -3.1612912e-05 -4.5879914e-05 91 -1 1953.203 
12.128797 5.7389247 19.655281 13.930073 0.23085183 -0.27048717 0.5 -45.300782 495.43924 -20.550275 -1.5476046 -1.708314 -0.87448109 1 10 1 3.8837216e-05 9.5095486e-06 9.1033601e-08 85 -1 1975.8365 
13.671515 8.8456335 -0.47231916 -0.35852813 0.13048466 -0.1844675 0.5 -4.4485503 695.14688 24.774423 0.21340241 0.59716399 0.019989741 1 10 1 -1.4522323e-05 7.085035e-06 -4.7627593e-06 51 -1 1999.9755 
4.7839372 8.7990866 9.4332067 8.6639593 0.032632596 0.004892303 0.5 -7.7611273 598.85157 -20.00442 0.079706428 0.16835656 0.2537577 1 10 1 1.9635081e-05 1.1413882e-05 -6.5839055e-06 120 -1 1970.7093 
11.672948 9.2433711 11.492532 9.7486825 0.51730814 -0.19146879 0.5 -13.562459 695.37232 21.779383 -1.8380635 1.7254707 0.47529987 1 10 1 5.8207189e-05 2.5098374e-05 7.1787376e-05 114 -1 1999.9581 
18.290507 0.069044461 3.4508452 2.360062 0.13170217 -0.69090995 0.5 37.95965 785.0654 -33.312181 0.29099173 1.7196972 0.12762252 1 10 1 4.6145974e-05 -1.9231754e-05 -1.7717003e-05 8 -1 1978.4491 
8.8466063 6.7931247 2.6872277 2.6094889 0.48694693 -0.28441408 0.5 -8.8563253 796.5337 9.4910321 0.45813146 1.2501171 -0.35437597 1 10 1 1.8287936e-05 1.1301122e-05 9.260824e-06 84 -1 1952.9678 
7.1289055 5.2469887 14.86571 11.978651 0.20497434 0.093079899 0.5 -25.747564 557.80994 40.119825 -0.26052168 -2.0045492 1.0061355 1 10 1 -1.8712356e-05 1.8768049e-05 3.461594e-05 86 -1 1944.8789 
16.010859 7.6315895 16.377121 13.106613 0.042580862 0.28047102 0.5 31.801284 639.97806 -32.377492 0.74647084 -1.6068068 -0.35569398 1 10 1 7.4431381e-05 -1.6541473e-05 -6.0904489e-05 85 -1 1927.6803 
19.277148 7.7332127 13.995342 11.642521 0.17236599 0.24700531 0.5 -18.127189 669.98317 21.727866 0.2759328 1.6621886 0.21021203 1 10 1 -9.8706608e-05 4.7983695e-05 3.8792987e-05 129 -1 1984.5887 
13.581804 0.34932241 17.04097 13.520219 0.54513202 0.0090489233 0.5 -71.044713 595.96065 -4.3603746 0.71855721 -0.44802264 0.47570807 1 10 1 1.472936e-05 1.31557e-05 -6.8368396e-07 104 -1 1972.9207 
4.312849 0.19589199 13.330859 11.6794 0.52745391 0.0032752579 0.5 -5.7316079 554.3004 22.448575 -0.14127271 -1.3842503 -0.25260662 1 10 1 -0.00010381993 0.00011022214 7.6919135e-06 129 -1 1970.6917 
3.5498665 8.6270529 2.6137385 1.9748397 -0.10826287 -0.15630531 0.5 59.299798 833.95621 -28.145946 0.051104539 0.61071533 0.39211806 1 10 1 -3.3169603e-05 2.7966907e-05 5.5315322e-05 141 -1 1960.4363 
6.6683438 8.6826963 2.1496711 1.5982827 -0.36974277 0.70351508 0.5 -5.0021345 711.5755 -9.7003691 -0.35189681 -0.59145204 1.1744031 1 10 1 -6.1115699e-06 5.9744718e-05 -2.6459846e-05 137 -1 1969.1236 
8.6612566 1.6213609 1.8208876 1.0369667 -0.46187583 0.36951128 0.5 14.625164 756.86785 3.7162261 1.9278019 2.480307 -0.35792567 1 10 1 3.5349991e-06 1.1074244e-05 -2.4971486e-06 38 -1 1997.6519 
14.552105 4.4041302 4.9545439 4.0430695 1.2015365 -0.1180683 0.5 21.917208 716.14998 2.3580028 1.4495707 -2.5097294 -1.089427 1 10 1 0.00010043794 5.4153624e-05 -9.9951052e-05 109 -1 1969.6146 
5.4203931 5.9246373 15.121183 12.284357 -0.40563667 0.00068056279 0.5 -6.6847594 715.55057 -13.277572 -0.98994364 -0.57833902 -0.54567173 1 10 1 -2.3989452e-06 -9.3657526e-06 -5.1672988e-06 101 -1 1992.5515 
17.655634 5.8069204 14.928734 11.434091 0.27049999 -0.16499514 0.5 -27.490049 594.55301 -4.8322442 0.3923208 0.34401663 -2.3537698 1 10 1 -0.00025134891 3.0674169e-05 2.9393351e-05 143 -1 1974.0806 
0.83770243 8.3330046 11.674902 10.088735 0.12366546 -0.37766873 0.5 21.412948 720.48563 15.784076 1.1442756 0.82678342 0.40830194 1 10 1 -5.2578376e-05 2.4010342e-05 4.0729854e-06 89 -1 1947.9519 
0.0046027159 2.9018015 10.362571 8.3093493 0.087573169 0.68245736 0.5 22.75729 594.00716 -7.2771144 0.77455456 0.67139196 0.58281425 1 10 1 4.2195897e-06 -3.0114662e-06 1.3442149e-06 112 -1 1901.78 
15.300527 2.8544276 16.666364 13.004935 -0.21430563 0.40023384 0.5 27.24613 644.04354 -13.921324 0.16986031 1.01655 1.5614845 1 10 1 -1.7468567e-05 3.9596001e-05 -3.4874674e-05 113 -1 1998.772 
11.699022 0.50050043 8.2994158 7.5251609 -0.4543705 0.60028841 0.5 -24.548195 732.44773 36.462744 -2.0923894 -3.2440741 -1.1830651 1 10 1 0.00010629511 -5.2381848e-05 -4.9295786e-05 88 -1 1991.9764 
16.688453 8.8527154 -1.1999561 0.018608885 -0.088235174 0.048602017 0.5 31.199131 18.672462 17.594024 0.1302521 0.1534201 -0.065814106 1 10 1 -9.7449393e-06 -3.8463208e-06 0 -1 0 1999.9992 
19.487876 5.3880864 -0.0045583341 -0.0089387412 0.021353834 -0.1348968 0.5 -19.496596 814.88431 -35.404283 0.46261469 -0.37475463 -0.086029589 1 10 1 -0.00031177803 0.00068578473 -0.0004920871 31 -1 2000.0001 
16.051699 6.4442073 5.8085809 5.3081969 1.2499531 0.30033222 0.5 8.1621579 730.05595 8.3840711 -0.69142727 1.0891351 0.061041962 1 10 1 -5.6849911e-06 -6.2643093e-06 -1.3489401e-06 141 -1 1963.9674 
14.332726 2.6103703 13.387658 11.179631 0.037509021 0.18291521 0.5 43.404509 754.37392 -58.089435 -0.094497358 1.063572 -0.47935246 1 10 1 2.4435686e-05 -1.0460663e-05 -5.5793438e-05 134 -1 1997.0863 
1.4569479 7.9370509 2.8498613 2.9634529 -0.67881474 0.77933561 0.5 -20.98041 716.05241 -20.337685 -1.3076866 1.6054881 -1.0499184 1 10 1 3.1166575e-05 9.5714106e-06 -3.064848e-05 147 -1 1997.5222 
17.027971 3.5418581 4.8591399 3.8526307 -0.19358028 1.0824705 0.5 -25.620958 810.47026 -46.604727 -0.19305981 -1.7966619 -0.018507697 1 10 1 -6.8855777e-05 4.3616881e-05 -0.00011326615 87 -1 1999.9304 
14.049509 4.6176757 1.1344266 0.69603572 -0.25831461 0.13037395 0.5 -2.7213865 903.43301 -12.0527 -2.0149354 1.1086271 1.2307077 1 10 1 3.0993009e-05 -3.8134704e-05 2.9116489e-05 41 -1 1999.9536 
5.8717967 3.2318167 7.0302273 6.2852204 -0.20779726 -0.30108708 0.5 34.746991 796.16527 -10.549965 0.51842253 0.7009107 0.32843763 1 10 1 2.6082883e-05 3.6096262e-06 9.4039323e-05 79 -1 1999.9028 
16.253394 4.6086288 1.6075604 0.94351767 0.51931172 0.53437158 0.5 10.075252 806.69672 -14.445931 -0.00096822501 1.4228689 0.23606998 1 10 1 -1.3052427e-06 2.8402367e-05 3.4878099e-06 163 -1 1997.3716 
16.408201 3.2657078 17.597861 13.228482 -0.15654237 0.19686031 0.5 -8.9145404 580.66701 -17.253986 0.77001537 0.63000721 0.14968799 1 10 1 6.2228951e-05 5.0091582e-06 1.8722884e-05 110 -1 1973.9417 
19.200502 3.3327394 0.8446927 0.44052928 -0.3851635 0.18865908 0.5 16.281494 801.38188 10.653165 -0.92231153 -1.5642837 2.765309 1 10 1 4.7095768e-07 -2.0391746e-05 -1.3582432e-05 29 -1 1984.063 
4.2185513 7.8817465 17.731052 13.24131 0.46585623 -0.43813142 0.5 2.2012517 678.97204 31.504501 0.25174603 -0.22376196 -0.38210423 1 10 1 -3.5000464e-05 -7.676322e-05 5.0826168e-05 104 -1 1868.4867 
12.436798 3.5810544 0.36107055 -0.13364325 -0.041736746 0.086803398 0.5 -13.977944 693.2935 57.063613 0.41286714 0.19880244 -0.62740636 1 10 1 -8.3256339e-06 1.1248429e-05 3.700281e-06 33 -1 1999.9993 
8.3249246 5.6906732 8.8578361 7.9825132 -0.41383454 0.23087398 0.5 9.5231431 683.15838 16.034574 -0.9084566 2.2499027 1.3144872 1 10 1 -3.3594784e-06 -2.4565856e-05 -2.5364633e-05 67 -1 1999.9902 
2.6742822 6.6160779 5.3401134 4.9512309 -0.82444484 -0.037515372 0.5 -11.621942 676.05983 38.764674 -2.4675739 -0.25790949 -1.9349521 1 10 1 -4.4133239e-05 2.7978385e-05 -4.4921273e-05 74 -1 1999.9726 
4.4031534 7.4052798 8.2054036 8.0031085 -0.33968453 -0.18924633 0.5 -23.449977 849.9023 -3.5134908 2.6718877 0.28049459 -0.53886321 1 10 1 1.621906e-06 1.2320153e-05 1.0823764e-06 78 -1 1994.7126 
14.788628 8.8133902 7.3550436 7.2759315 -0.26857181 -0.60204973 0.5 -9.9067943 868.39362 -27.890096 0.73435267 -0.21969341 2.6435291 1 10 1 -9.8192623e-05 -3.7259086e-05 -0.00010560491 78 -1 1984.0118 
9.4700905 4.0633883 16.584688 12.829153 0.017784831 0.017804761 0.5 11.169192 612.83033 3.7749118 0.57020784 0.4019607 0.95053069 1 10 1 -3.1004818e-06 4.5160272e-06 8.6948911e-06 152 -1 1983.3086 
5.7846764 8.8304957 9.3933095 8.2202414 0.050797335 -0.4873979 0.5 55.318231 844.63393 -53.222973 0.44665991 0.99654093 0.37388557 1 10 1 1.3140944e-06 -5.5368696e-06 3.3857181e-05 138 -1 1999.9899 
3.6494951 0.18648068 10.171307 8.9568928 0.12100154 0.61254625 0.5 1.8721294 694.58495 11.661624 0.3788808 1.3339375 0.87611691 1 10 1 -5.6008023e-06 4.826724e-06 3.7108018e-05 69 -1 1998.7491 
9.9774999 2.1985817 7.8581327 6.7811962 0.23006318 -0.46712228 0.5 14.054549 812.13305 -13.302821 1.2081166 -0.26111599 2.550553 1 10 1 -7.6317281e-05 -6.9146653e-06 2.4972573e-05 95 -1 1996.9315 
6.0644162 8.103426 10.096582 8.1627649 -0.55938003 -0.1684489 0.5 -18.544671 754.91232 7.0915867 2.2039038 -0.10029871 0.44168034 1 10 1 4.4113307e-05 7.4286239e-06 -3.6407095e-05 138 -1 1999.0542 
17.4261 1.8240558 19.978294 14.485014 -0.46689574 -0.10776533 0.5 -15.927616 529.30866 48.300373 -0.24379531 0.74765011 1.0290194 1 10 1 -0.00013456338 -4.5148959e-05 -1.2505695e-05 85 -1 1979.9683 
15.722696 4.904014 2.7805824 2.3312183 -0.52094327 0.011464447 0.5 -16.478807 797.86098 -20.366418 -2.352845 -0.11927297 -1.3434328 1 10 1 -2.1460339e-05 -1.4155137e-05 -1.8577335e-05 81 -1 1984.3678 
19.599418 5.8669185 14.667556 11.594971 0.37136113 -0.42867548 0.5 -37.600805 698.66527 58.519945 -0.18218546 1.6420356 -0.53569617 1 10 1 2.7681375e-05 4.3227391e-06 -1.7646969e-05 134 -1 1957.7761 
18.209386 3.1784441 0.7462198 0.42853972 -0.63512916 0.33086487 0.5 18.656564 863.00245 2.644274 0.74773733 1.1708109 -2.5483246 1 10 1 4.3540115e-06 -1.8062693e-05 -1.9515782e-05 167 -1 1999.929 
15.218014 6.4301696 8.8387735 7.8604109 -0.52930287 0.47541167 0.5 24.284659 618.80138 14.867588 -0.91655648 1.5192197 -0.3376308 1 10 1 -3.0486804e-06 -1.3644458e-05 -1.3357672e-05 108 -1 1985.2358 
0.93909007 4.7064696 4.1940087 3.877548 -0.48115035 -0.85596997 0.5 -42.465008 728.47828 52.383121 -0.84875657 0.45071649 -0.19950081 1 10 1 4.9325778e-05 3.8850754e-06 -1.1879081e-05 180 -1 1995.2247 
8.8784458 4.6835711 5.0183651 5.6047423 0.19423528 -1.5803918 0.5 -4.2808588 825.3557 13.422436 -1.3463525 -1.083741 -1.4598393 1 10 1 1.2219254e-05 -5.8579088e-06 -7.8196952e-06 184 -1 1992.7339 
9.7043739 0.10340205 10.313168 8.5334231 0.81201426 0.66759613 0.5 27.483559 841.18971 -5.485841 -0.12215052 3.2846592 0.50231378 1 10 1 -1.6754693e-05 3.9947748e-05 8.9662317e-06 112 -1 1999.921 
3.0645524 9.0392843 8.7702325 7.985668 0.30921545 0.29964527 0.5 7.87842 826.59427 3.6424299 0.37412481 2.5716655 -0.86174718 1 10 1 -5.5298565e-05 6.7573015e-07 1.4739267e-05 138 -1 1997.4899 
11.500513 8.2874504 6.9754633 6.2055173 0.080554801 -0.77916126 0.5 -30.79768 847.82601 55.916744 0.2912726 -1.3064374 -1.0604853 1 10 1 2.4950543e-05 1.4529332e-05 -5.140564e-06 100 -1 1999.8709 
17.640222 4.1785836 6.6690222 6.478215 0.71072374 0.44770487 0.5 -21.822045 847.38529 -26.198275 2.3846509 -2.0131864 0.48056821 1 10 1 4.2601123e-06 -1.7958819e-05 -8.8257764e-06 100 -1 1957.123 
15.534236 7.6319555 0.55285898 -0.17113365 0.39742532 -0.40293092 0.5 -21.936832 853.50483 36.02329 2.236879 -0.086423513 -1.3665176 1 10 1 -3.7665293e-06 2.5660989e-05 -4.8793859e-06 28 -1 1999.8886 
18.441771 1.3975208 7.8658629 6.6627488 -0.38770971 -0.51857674 0.5 2.0362393 860.20019 -1.1537696 3.0296692 0.13130458 -0.097692826 1 10 1 9.3686923e-05 3.2348208e-05 -5.9308606e-05 116 -1 1991.407 
11.239179 7.2623506 3.7265125 4.2542651 -0.17743663 -0.47168073 0.5 28.283141 760.89196 19.241725 -1.4118236 -1.5494254 -2.2590232 1 10 1 -2.4619196e-05 -2.1885233e-05 1.3462794e-05 141 -1 1997.8751 
2.9028847 1.7137936 11.35064 9.5888169 0.25595371 -0.10975439 0.5 -41.064157 782.47715 -58.310286 1.3331642 0.9450239 -0.72931551 1 10 1 -2.5692936e-05 -1.4051698e-05 -1.5197397e-05 139 -1 1968.7789 
18.023795 8.5948268 -0.31211837 -0.17944368 -0.12153768 -0.26837515 0.5 -10.10335 766.06137 41.975735 0.18950371 0.489863 -0.25668144 1 10 1 -0.00017354739 -0.00016424151 -0.00039757265 25 -1 2000.0001 
7.2592185 8.5809701 15.979088 13.087036 0.36960099 -0.44499577 0.5 1.2846069 649.64055 -25.625411 0.36664862 0.31391206 0.53055853 1 10 1 2.5235731e-06 -5.6050827e-06 6.1943211e-06 98 -1 1975.3183 