restart_version 2
name H30A28L2M0.5B0.5
xmin 0 xmax 20 ymin 0 ymax 10 zmin 0 zmax 36
dt 0.0001 t 2000.0001 tmax 2000 save_count 500000
dim 3 gravity 0.46947156 0 -0.88294759
options_fstat 0 options_data 0 options_ene 1 options_restart 2
Species 1
k 200000 disp 25 kt 57142.857 dispt 25 mu 0.5 rho 1.9098593 dim_particle 3
Walls 1
numFiniteWalls 0 normal 0 0 -1 position 1.7
WallsPeriodic 2
normal 1 0 0 pos_left 0 pos_right 20 shift 20 0 0
normal 0 1 0 pos_left 0 pos_right 10 shift 0 10 0
Particles 6067
19.330017 1.0144385 -1.4931023 0 0 0 1 0 0 0 0 0 0 0 0 0 
19.998067 4.801808 -1.6774446 0 0 0 1 0 0 0 0 0 0 0 0 0 
9.0009585 2.2610568 -0.7392901 0 0 0 1 0 0 0 0 0 0 0 0 0 
11.319671 5.3727791 -2.0989941 0 0 0 1 0 0 0 0 0 0 0 0 0 
5.4432148 0.69356462 -2.3006582 0 0 0 1 0 0 0 0 0 0 0 0 0 
2.4775488 2.183002 -0.97341932 0 0 0 1 0 0 0 0 0 0 0 0 0 
10.381533 3.856421 -0.96416921 0 0 0 1 0 0 0 0 0 0 0 0 0 
11.232541 0.3387141 -2.1629756 0 0 0 1 0 0 0 0 0 0 0 0 0 
10.273786 0.7403499 -0.46097249 0 0 0 1 0 0 0 0 0 0 0 0 0 
12.119962 9.1507635 -0.7747042 0 0 0 1 0 0 0 0 0 0 0 0 0 
17.507186 1.8130578 -1.1150478 0 0 0 1 0 0 0 0 0 0 0 0 0 
0.10339191 6.7847973 -1.8655902 0 0 0 1 0 0 0 0 0 0 0 0 0 
4.6265159 2.1817674 -1.1848395 0 0 0 1 0 0 0 0 0 0 0 0 0 
2.3793022 7.152178 -0.54923244 0 0 0 1 0 0 0 0 0 0 0 0 0 
9.618117 6.9437624 -0.24860092 0 0 0 1 0 0 0 0 0 0 0 0 0 
8.2963885 8.5273967 -1.9377969 0 0 0 1 0 0 0 0 0 0 0 0 0 
17.996162 9.5389345 -1.478369 0 0 0 1 0 0 0 0 0 0 0 0 0 
3.8480144 3.7084524 -2.2709868 0 0 0 1 0 0 0 0 0 0 0 0 0 
14.569038 4.5746731 -2.1100379 0 0 0 1 0 0 0 0 0 0 0 0 0 
11.60796 2.1562788 -1.2803502 0 0 0 1 0 0 0 0 0 0 0 0 0 
1.9033776 4.2527062 -1.9295815 0 0 0 1 0 0 0 0 0 0 0 0 0 
9.6787983 6.494031 -2.1903785 0 0 0 1 0 0 0 0 0 0 0 0 0 
5.3729973 8.2317838 -0.24498363 0 0 0 1 0 0 0 0 0 0 0 0 0 
7.1046979 4.352739 -1.8206174 0 0 0 1 0 0 0 0 0 0 0 0 0 
4.7818852 0.33002225 -0.44813685 0 0 0 1 0 0 0 0 0 0 0 0 0 
19.413485 8.3252937 -0.80739518 0 0 0 1 0 0 0 0 0 0 0 0 0 
16.273632 0.41309669 -1.9180405 0 0 0 1 0 0 0 0 0 0 0 0 0 
10.267362 8.575693 -2.1607585 0 0 0 1 0 0 0 0 0 0 0 0 0 
16.210608 7.4546657 -0.77787905 0 0 0 1 0 0 0 0 0 0 0 0 0 
1.4017444 3.9329842 -0.024649341 0 0 0 1 0 0 0 0 0 0 0 0 0 
14.559586 9.4823649 -1.5499246 0 0 0 1 0 0 0 0 0 0 0 0 0 
0.89243535 5.855513 -0.24304626 0 0 0 1 0 0 0 0 0 0 0 0 0 
6.5814665 9.3658123 -1.367215 0 0 0 1 0 0 0 0 0 0 0 0 0 
12.371518 4.0054793 -1.0762213 0 0 0 1 0 0 0 0 0 0 0 0 0 
5.3888749 3.9629039 -0.65259336 0 0 0 1 0 0 0 0 0 0 0 0 0 
11.885399 5.7239607 -0.17468586 0 0 0 1 0 0 0 0 0 0 0 0 0 
1.9694367 6.2128737 -2.2654843 0 0 0 1 0 0 0 0 0 0 0 0 0 
1.3240057 8.7162954 -1.2277861 0 0 0 1 0 0 0 0 0 0 0 0 0 
6.7173069 0.83747111 -0.046913899 0 0 0 1 0 0 0 0 0 0 0 0 0 
6.8644238 5.3678862 -0.068038272 0 0 0 1 0 0 0 0 0 0 0 0 0 
8.8201676 5.1330734 -1.0194902 0 0 0 1 0 0 0 0 0 0 0 0 0 
14.711867 4.213571 -0.15227394 0 0 0 1 0 0 0 0 0 0 0 0 0 
4.0050126 7.6781626 -1.5827513 0 0 0 1 0 0 0 0 0 0 0 0 0 
14.791158 1.0164942 -0.252422 0 0 0 1 0 0 0 0 0 0 0 0 0 
6.038574 7.6240352 -2.1355829 0 0 0 1 0 0 0 0 0 0 0 0 0 
3.4881521 1.0646865 -2.397689 0 0 0 1 0 0 0 0 0 0 0 0 0 
13.737693 5.9178694 -0.89791124 0 0 0 1 0 0 0 0 0 0 0 0 0 
13.374957 2.6600646 -2.1306228 0 0 0 1 0 0 0 0 0 0 0 0 0 
0.33497185 2.7112414 -1.1908701 0 0 0 1 0 0 0 0 0 0 0 0 0 
13.405396 2.5260049 -0.13938516 0 0 0 1 0 0 0 0 0 0 0 0 0 
7.0155577 2.7023384 -0.700436 0 0 0 1 0 0 0 0 0 0 0 0 0 
13.511428 7.7913334 -1.5279549 0 0 0 1 0 0 0 0 0 0 0 0 0 
11.586472 7.2319552 -1.4531329 0 0 0 1 0 0 0 0 0 0 0 0 0 
8.5291123 0.42952152 -1.3801095 0 0 0 1 0 0 0 0 0 0 0 0 0 
3.1602621 9.4798821 -1.2510768 0 0 0 1 0 0 0 0 0 0 0 0 0 
5.579762 5.770911 -1.5589688 0 0 0 1 0 0 0 0 0 0 0 0 0 
3.4988758 5.0669081 -0.7550967 0 0 0 1 0 0 0 0 0 0 0 0 0 
15.260754 2.8080827 -1.4761412 0 0 0 1 0 0 0 0 0 0 0 0 0 
8.8913668 3.5695487 -2.2570855 0 0 0 1 0 0 0 0 0 0 0 0 0 
7.6871037 6.7628575 -1.2367601 0 0 0 1 0 0 0 0 0 0 0 0 0 
16.633641 6.0268704 -2.1026496 0 0 0 1 0 0 0 0 0 0 0 0 0 
9.4548971 8.9255459 -0.35693579 0 0 0 1 0 0 0 0 0 0 0 0 0 
17.026194 4.6232216 -0.74438735 0 0 0 1 0 0 0 0 0 0 0 0 0 
18.138275 6.7163885 -0.89904905 0 0 0 1 0 0 0 0 0 0 0 0 0 
18.508556 3.495914 -1.478946 0 0 0 1 0 0 0 0 0 0 0 0 0 
1.0529106 0.8638742 -0.49695421 0 0 0 1 0 0 0 0 0 0 0 0 0 
13.108013 0.83602468 -1.3585504 0 0 0 1 0 0 0 0 0 0 0 0 0 
7.6664952 1.2843492 1.0547361 0.4752872 1.1843428 0.046471222 0.5 4.5995236 938.02247 49.316354 0.45538494 -0.51294341 -0.64957022 1 10 1 1.579838e-05 9.9183352e-06 -1.6708173e-05 38 -1 1999.8532 
15.91614 5.7079134 0.8031262 0.76003731 -0.03587597 0.11251578 0.5 -8.8528199 891.7165 10.344351 -0.70673721 -1.1401066 -0.45139901 1 10 1 3.4538994e-05 -2.2764863e-05 1.2926265e-05 46 -1 1995.3104 
19.756129 5.5615593 14.522102 15.889472 0.069547755 0.83051266 0.5 -19.109032 823.52662 -35.381707 5.9322997 3.0449976 2.4260617 1 10 1 -5.1340217e-06 7.3562456e-06 -4.1428598e-06 68 -1 998.4954 
12.846815 4.0738323 26.68025 25.259221 -0.41625536 0.0079167929 0.5 -7.2289519 593.81009 -24.091924 0.14275087 0.51787049 0.55257877 1 10 0 
11.237489 0.61968028 0.72760005 1.3167188 0.072875306 -0.48111012 0.5 -25.593163 980.3192 59.532216 -0.5150871 2.4769144 0.81898188 1 10 1 2.5388266e-05 3.4582798e-05 -5.682166e-06 8 -1 1999.427 
14.149292 7.9479705 10.45497 12.122419 -1.3049895 0.79448916 0.5 65.375481 757.07457 -6.975608 -2.0134036 2.7783557 -2.8544423 1 10 1 -8.1706273e-06 7.2970856e-05 -3.0245616e-05 67 -1 186.4729 
6.2317978 1.748093 12.222212 14.441417 0.93472303 0.67115492 0.5 21.963263 995.07274 -27.980917 4.6890104 1.6308577 0.33073206 1 10 1 -2.2202023e-05 3.2345806e-05 -9.0926107e-06 71 -1 1715.9459 
17.309239 1.675142 17.754581 19.618045 -0.18566254 1.2228618 0.5 -7.2441687 991.9489 -4.412742 1.812459 2.2202978 0.67110289 1 10 1 -3.473503e-05 1.4089246e-05 5.1238795e-06 72 -1 1861.9752 
10.207769 2.1028307 7.9097504 8.7985597 0.81602231 0.019661515 0.5 -25.621947 1090.9137 22.934515 0.25882711 -0.81699904 0.81158106 1 10 1 -6.0424072e-06 -2.3418565e-05 4.056569e-05 38 -1 1804.8018 
14.272262 6.3650121 6.7322542 7.5125225 0.43232553 0.18267322 0.5 -22.660004 990.86879 -8.7031945 0.29788677 -2.2606887 -0.73029152 1 10 1 2.8687284e-05 -5.2215715e-05 -7.2631901e-05 73 -1 1672.5369 
11.989742 0.043398807 24.111655 24.025126 0.15315673 0.27065508 0.5 51.073011 724.43952 -30.329514 0.22195434 0.63992083 0.42367799 1 10 1 1.7457736e-05 2.5499213e-05 -1.5185907e-05 72 -1 1142.8892 
6.1935293 5.7043761 4.8707496 6.4571 -1.7084542 0.99336889 0.5 -43.006295 882.76509 -27.178302 -3.2703268 2.1853638 1.5769136 1 10 1 9.8797893e-06 -9.5312285e-06 -2.648926e-06 76 -1 1892.3392 
10.569004 1.9090159 13.746713 15.474379 0.17881309 1.2425444 0.5 60.996113 879.87554 -24.954135 -0.39458739 -0.94590167 0.67991871 1 10 1 4.3451306e-05 3.3590469e-05 -1.2966201e-06 76 -1 1873.1302 
4.1910328 2.9330648 8.2381803 9.9973386 -1.0471576 -0.53535762 0.5 -20.263896 984.21244 76.059761 0.86827635 -0.56649671 -0.89931654 1 10 1 -1.5025775e-05 -3.7035948e-05 1.7975625e-05 78 -1 1968.6979 
9.8536038 1.206653 5.6104887 7.3514111 -1.0829817 0.086147332 0.5 28.972475 956.40673 -17.715963 3.2676866 -4.6591631 -0.73813322 1 10 1 4.4720217e-05 8.5460334e-06 1.0407086e-05 68 -1 1885.8387 
18.326392 3.1209857 28.531199 25.825264 -0.053057567 0.057581071 0.5 -1.4417722 650.94469 26.797572 0.93674552 0.61385449 0.46878248 1 10 1 -6.1645005e-06 -3.4809416e-06 1.7280313e-06 70 -1 1197.5649 
2.0411799 2.9721138 12.596915 14.592363 0.54767346 0.055271974 0.5 40.945127 1008.8428 -8.756893 0.70715178 1.8419028 -0.11392105 1 10 1 -4.3559225e-05 3.6563849e-05 -4.8701255e-06 73 -1 1993.6874 
11.323262 5.6145575 28.05395 26.151771 -0.28704109 -0.59753126 0.5 44.792565 708.63304 -6.7081103 0.18119556 -0.15993342 0.51415798 1 10 1 4.2618453e-05 -1.5464066e-05 -1.2877677e-05 77 -1 1704.3655 
7.8120526 1.0069477 2.0175549 2.1274751 0.051906088 -0.54454959 0.5 43.220211 990.1333 15.140643 1.525372 -0.89530579 2.479201 1 10 1 -4.3230031e-05 -2.067026e-05 -2.0355174e-05 67 -1 1999.6964 
9.5735853 7.9321013 7.8181751 8.9206025 -0.6526437 -1.0114352 0.5 30.537013 1046.4372 -40.833384 2.8605411 -0.9707285 1.7456156 1 10 1 -0.00020490842 -3.5871706e-05 -2.8947406e-05 76 -1 1981.1767 
4.3723639 4.2600508 1.5027453 1.4228221 -0.88954359 0.049423041 0.5 4.4638191 1005.0067 44.121357 -3.2166453 -0.45862937 3.1991821 1 10 1 3.7253761e-05 2.3400018e-05 -3.3904772e-05 29 -1 1998.4035 
0.56770179 7.1990276 10.424186 12.106683 -0.026896579 0.39737363 0.5 -0.19504177 940.76045 -26.086254 0.5199067 -0.068312215 0.64377378 1 10 1 -4.609778e-05 4.2509428e-05 -4.338702e-05 69 -1 1965.9105 
6.1122617 1.0375323 8.1133078 9.4966552 -0.8119382 0.035231446 0.5 -50.773224 925.17464 36.30183 2.2163615 -0.13804592 0.67707316 1 10 1 8.8627268e-05 -2.4101091e-05 -2.2349812e-05 72 -1 1981.3959 
1.273144 2.4728888 20.060625 21.042247 0.11527674 0.55199529 0.5 7.1487749 788.63979 -12.940038 0.8129535 -1.2917336 -0.64225862 1 10 1 -1.4416214e-05 -3.074795e-05 5.8218452e-05 77 -1 1839.2062 
17.955666 7.5697986 17.789013 19.101122 -0.34372422 0.73593272 0.5 -8.7435791 804.13818 -6.3966252 -1.0493875 -1.2873707 -0.16401661 1 10 1 2.9675913e-05 -1.7786239e-05 -9.5392736e-06 83 -1 1811.6103 
13.346996 0.79716091 22.26397 22.323973 -0.76306377 -0.044400744 0.5 39.719824 804.78909 -14.017146 -2.1062738 -1.243472 -0.90563055 1 10 1 -7.4532847e-07 3.6258539e-05 9.8368027e-06 90 -1 1937.6276 
18.442771 8.4729889 1.5568389 3.2613094 0.50945864 -0.72770646 0.5 59.948465 978.32766 7.5819253 0.09884392 2.2680077 0.21871928 1 10 1 -2.7891405e-05 1.7969647e-05 2.030773e-05 76 -1 1923.5777 
7.376608 4.1022389 14.686246 16.743549 -0.27750911 0.22294513 0.5 9.0012985 1093.3436 -46.387587 -1.2527376 -0.10975935 -0.033328333 1 10 1 -3.1003268e-06 1.8196581e-05 -3.0969806e-05 72 -1 1924.4288 
9.6113115 0.80570406 24.702773 24.708267 0.52929259 0.82854727 0.5 -37.319716 577.33318 3.4413305 0.10351363 0.50363316 -0.32662687 1 10 1 -1.992555e-06 1.0479216e-05 -2.5405269e-05 77 -1 1884.8025 
1.3963691 8.9263994 10.768803 12.181366 -0.84941485 0.68127043 0.5 -8.7397889 937.25855 -139.2034 -0.38521803 1.867511 -0.019147338 1 10 1 -1.7674826e-05 -6.1766618e-06 5.8771851e-06 83 -1 1985.1181 
12.994317 0.14742563 0.023438881 1.0210369 -0.074189517 0.033968461 0.5 63.514107 1087.9269 -46.769809 -1.3317531 -1.7779286 -0.2110122 1 10 1 1.6869654e-05 -5.3687479e-06 -4.3920947e-07 66 -1 1999.802 
7.6869076 7.678549 7.6725479 8.9492699 -0.53449577 0.32913397 0.5 -28.813067 977.48734 -0.65070944 -0.72248908 -0.98470223 1.1295978 1 10 1 6.9074672e-06 -1.4948559e-05 -5.194347e-05 86 -1 1997.6634 
0.99858943 3.4027599 3.9893606 3.9854298 0.3352882 0.33305679 0.5 20.344873 1195.0528 -33.933334 1.5994961 0.097165545 -0.041531611 1 10 1 -0.00026928837 0.00014584451 -4.0128747e-05 49 -1 1979.2811 
0.80322016 6.5136919 27.869128 25.118003 -0.083152614 0.23634459 0.5 -22.328971 875.12904 21.503606 0.25224384 0.45111018 0.32229128 1 10 1 1.6097286e-05 -1.7962231e-05 -0.00011519142 84 -1 1972.4269 
2.4517007 8.9417294 25.516995 24.503206 0.29850615 0.28375617 0.5 37.717254 794.13452 28.870588 -0.60317631 0.79061848 0.14183543 1 10 1 -6.8994794e-06 1.2180811e-06 -1.3971305e-06 90 -1 1806.8578 
19.652688 4.3674136 7.4207549 9.7033813 -0.21784251 -0.51229726 0.5 60.839097 1075.4451 -35.823448 -0.78909484 1.5337929 -1.3569209 1 10 1 6.6743871e-05 -3.0844848e-05 -7.1200126e-06 85 -1 1914.6134 
7.097276 3.3206052 6.6339186 7.3324056 -0.46350564 0.14100268 0.5 20.818523 1080.1804 -40.636783 0.81310733 3.5197147 2.0226556 1 10 1 2.4844111e-05 5.5054629e-07 -1.1585992e-05 102 -1 1948.5062 
10.360031 9.2692547 6.5124646 7.9821127 0.0070167007 1.0208606 0.5 29.991943 871.35133 -13.326986 -0.66024863 -1.3914658 2.691033 1 10 1 -1.7710102e-05 2.1166078e-05 2.589873e-05 89 -1 1880.1668 
18.787489 6.1215014 4.8299167 4.9453635 -0.13032901 1.3726518 0.5 0.5051694 976.53376 -29.519494 5.5465744 2.5637806 -2.7738789 1 10 1 0.0001202081 2.5653637e-05 2.0940251e-06 80 -1 1970.4353 
0.79824837 5.4524932 7.5611665 8.8770122 1.0280382 -0.29093898 0.5 33.751502 982.97456 7.4793792 1.06839 1.1327734 2.5459445 1 10 1 -3.8984069e-05 -1.7740135e-05 -0.00011541021 76 -1 1993.1723 
15.989867 4.2081407 17.512199 18.85099 -0.10706547 0.029448324 0.5 -30.888713 792.16589 27.576054 -0.12737988 -1.9911483 -0.4136019 1 10 1 -6.0968566e-05 1.2619674e-05 -4.2097116e-06 90 -1 1768.4926 
0.14035793 0.61156226 21.307054 21.546427 -0.5411908 0.52010394 0.5 32.550763 842.409 -61.180343 -2.6757704 -0.073802274 -3.2661946 1 10 1 -2.309166e-06 2.7346209e-05 -1.266316e-05 95 -1 1946.9675 
2.8898282 2.693099 9.0097268 10.647361 -0.019689949 0.83123723 0.5 5.5845076 1049.6104 102.11948 0.63594795 0.82764775 1.1984831 1 10 1 -2.2803183e-05 5.4335895e-05 3.2740927e-05 104 -1 1950.9974 
1.5027321 8.896598 5.0868353 5.4357758 0.44184273 1.4605797 0.5 17.809303 1056.064 -43.070398 -3.3097037 -2.8251861 -3.2255828 1 10 1 3.7422415e-05 2.6178635e-05 -5.5512972e-05 75 -1 1879.3154 
11.545975 3.4315531 15.900444 18.484767 -0.56379878 0.2506606 0.5 -18.521405 867.22957 -25.202921 -0.10517935 2.1732275 0.37014956 1 10 1 -4.7994883e-05 4.9437563e-05 4.0258425e-06 107 -1 1996.0195 
1.6689199 3.8167972 7.9232466 10.820467 0.26431828 1.0568148 0.5 -19.3815 959.51801 -25.177543 0.13325637 -0.88254729 -1.0135503 1 10 1 -2.6100647e-06 1.5540441e-05 3.1363558e-05 102 -1 1997.7356 
2.6809461 9.188302 8.2123962 9.9154979 0.68065359 0.20610853 0.5 5.4369827 922.41991 -46.989594 1.8934215 -3.5483842 -1.4243309 1 10 1 3.1395631e-05 0.00011407186 -0.00010563642 72 -1 1994.8991 
6.426006 0.50034868 15.796812 17.784275 0.10491464 0.45748573 0.5 -13.053673 944.57605 -20.706932 0.85475755 0.13080997 -1.0281353 1 10 1 -1.6380531e-05 -4.0133883e-06 2.5962134e-05 74 -1 1976.3827 
2.3259342 2.4054848 4.6928661 4.7707974 0.5679109 -0.35230629 0.5 3.8801354 1051.6455 -46.007484 -2.5724746 3.3028497 -3.1722141 1 10 1 1.326313e-06 -2.6683452e-05 -4.1275776e-06 103 -1 1994.5749 
15.637861 1.478159 25.727332 24.356134 0.067002111 -0.059873887 0.5 -74.907026 601.40093 -20.987626 0.063331353 0.03220733 -0.53552242 1 10 1 -1.1663348e-05 1.4680843e-05 5.3330854e-06 82 -1 1828.6308 
14.734671 3.6902664 20.358943 21.475796 1.2362131 -0.29523438 0.5 22.917511 1019.9317 -29.664821 -1.3067255 -0.41687106 0.4353505 1 10 1 6.2160928e-05 -4.8467477e-05 3.0932058e-05 111 -1 1877.6544 
0.67940938 9.0697316 8.1282386 10.161263 0.083918844 0.22631421 0.5 -20.790967 1013.5445 -4.2938193 -2.5058192 0.96524014 0.11876051 1 10 1 -1.6327235e-05 6.2942595e-06 1.2257771e-05 113 -1 1996.2863 
2.785211 5.0612859 2.2178181 3.998314 -0.19472682 -1.1316741 0.5 27.112333 1105.523 18.839804 -0.40814496 1.3129692 0.94379398 1 10 1 -3.2262199e-05 3.6220365e-06 9.0011988e-07 78 -1 1997.979 
10.257343 0.14012028 10.898323 11.851987 -0.29312952 0.082566953 0.5 -1.2567384 1096.8899 -38.426749 -0.40016311 -0.15152984 -0.79456664 1 10 1 -5.7901566e-05 -1.773385e-05 3.0418922e-05 96 -1 1984.013 
8.9001939 0.0045416107 1.2526094 0.045874652 -0.35631113 0.72191064 0.5 -40.052126 1008.2928 11.028604 3.9081405 1.4689272 0.049553867 1 10 1 1.1481997e-05 -1.8931991e-05 -2.4159657e-05 38 -1 1997.3238 
6.4976974 9.1806826 7.6365285 9.3953025 -0.265799 -0.18005636 0.5 11.323323 986.26484 6.5011929 -0.85728645 -1.6801788 0.12621729 1 10 1 5.4102689e-06 7.5254506e-06 -4.7280882e-06 72 -1 1988.0884 
18.577584 1.2973225 11.248989 13.382511 0.34262664 -0.10520008 0.5 -16.097705 1202.2554 15.176585 -0.056397808 -1.518966 -1.5988858 1 10 1 -2.4177978e-05 7.1055436e-05 -1.1167002e-05 83 -1 1997.6377 
11.018621 7.54428 14.731776 16.242664 0.16090042 -0.14783135 0.5 -13.199402 775.62349 -30.277803 0.62859578 -0.66817956 2.0025973 1 10 1 3.5294149e-05 -9.534991e-06 -7.0773588e-06 69 -1 1983.8081 
18.523826 4.8832176 2.5727578 1.9395462 -0.25862208 -1.2059543 0.5 -9.7304431 1029.0783 40.960216 -2.3008468 -1.8797521 -0.5534624 1 10 1 -9.0126328e-05 2.2313483e-05 -9.2099845e-05 78 -1 1978.0828 
4.1358327 1.6282137 14.334397 16.18493 -0.19370849 -0.29347606 0.5 23.649655 933.77399 -59.42346 0.59966877 0.89936481 -0.7937445 1 10 1 5.0722401e-05 1.8228177e-05 -2.3641064e-05 74 -1 1954.4299 
17.281935 5.5421393 23.817039 23.730747 0.20479788 0.045344598 0.5 54.397526 615.98638 30.806478 0.76595549 0.0073542418 0.48047568 1 10 1 -1.0103241e-05 -9.9192995e-07 2.3863767e-06 70 -1 1987.6012 
7.0166781 2.8979454 7.5496686 9.1512445 0.44767452 0.46547397 0.5 97.077842 957.68395 -52.680736 3.6372311 2.3366687 -1.109861 1 10 1 -8.6214254e-05 2.2254463e-05 -2.5609251e-06 103 -1 1999.9687 
9.4683369 3.3539217 6.3859124 7.9159125 1.2244861 -0.025839442 0.5 14.861033 1083.1338 -8.502321 -0.029831892 -1.6926846 1.2575747 1 10 1 -3.1449278e-05 2.5811896e-06 6.6111227e-06 115 -1 1996.612 
12.723266 3.1051992 25.893454 24.733664 0.43921339 -0.64365969 0.5 28.047516 663.52883 2.4433606 0.72734002 0.34234256 -0.79308438 1 10 1 -1.5438009e-06 -4.2850857e-06 5.7778427e-06 70 -1 1999.0823 
15.221287 5.6518061 5.8458323 6.6161201 0.14129441 0.84388974 0.5 49.712891 938.72208 -33.746406 -0.49666971 -0.18494597 1.5656495 1 10 1 -2.7163376e-05 -3.2775026e-05 1.4399342e-06 102 -1 1996.2358 
13.096461 7.9381726 5.5544027 6.8269407 -0.044026044 -0.42315157 0.5 -5.3620532 990.49044 -2.0709661 -2.2455145 -2.5497074 -0.73988278 1 10 1 -3.88187e-05 9.7689198e-05 9.3484973e-05 118 -1 1961.8242 
4.334465 0.57079986 4.4195258 5.9388634 0.84169188 -0.45806381 0.5 3.0584035 998.84562 -47.933998 -1.5826862 0.579668 3.2185887 1 10 1 2.2530734e-05 1.0076934e-05 -1.5965804e-05 38 -1 1982.2181 
17.089449 7.7199115 2.5560282 2.1698477 -0.30479283 -0.045492178 0.5 -102.12358 955.99388 -24.637458 0.90184029 -1.6522759 0.21160954 1 10 1 -2.1498191e-05 -4.0192304e-05 9.6123449e-06 81 -1 1984.1349 
9.8640654 6.8604146 20.622807 21.407312 0.40285171 0.1233325 0.5 5.5968158 819.78006 14.637693 -0.50684097 0.92133458 -0.22384774 1 10 1 -7.4651805e-07 -5.9929247e-06 -7.0772346e-07 117 -1 1895.863 
11.344891 4.0893919 11.973005 13.409749 0.15739408 0.55877698 0.5 -27.026953 966.70302 22.651639 -0.22694988 0.88240866 0.24341539 1 10 1 4.5785995e-05 -3.5753703e-05 -2.8189897e-05 109 -1 1935.1238 
5.5977268 4.3901723 20.867842 21.573265 0.51383934 0.14989046 0.5 -5.023959 604.98325 8.6446946 1.2328875 0.12762671 2.0137721 1 10 1 -8.1027967e-05 -0.00012227051 5.940243e-05 90 -1 1965.9803 
12.906561 8.8239808 5.9957461 7.0300255 1.1647544 0.21531801 0.5 -10.238869 924.85751 23.556727 -0.85874546 0.16618537 0.53502743 1 10 1 5.0023751e-05 -3.63567e-05 9.4858606e-05 132 -1 1999.9941 
3.3350883 4.1913508 27.847725 25.948654 -0.28387585 -0.061324705 0.5 18.3653 598.98816 11.202379 -0.037651729 -0.48524586 0.57634719 1 10 1 -1.5511034e-05 5.9182341e-06 1.9375254e-05 82 -1 1976.5974 
10.864085 9.382024 17.707968 19.750079 -0.31574202 0.20507341 0.5 32.906995 924.7222 -22.90188 0.45695226 -1.2357963 0.65222662 1 10 1 2.7836727e-05 -0.00010343005 -6.8717305e-05 135 -1 1923.6579 
2.5252536 7.4209453 23.186901 24.117791 0.051222936 -0.13754238 0.5 -34.056196 772.17382 25.865551 1.554634 -0.090822907 0.21263728 1 10 1 -0.00012909582 -4.6017698e-05 8.7206198e-05 139 -1 1953.0043 
13.211484 2.7368853 18.722747 20.391715 0.26229501 -0.15668677 0.5 28.860978 873.65019 -15.156635 0.21779711 -0.4104051 -1.200508 1 10 1 2.5295114e-05 -0.00012059247 -5.4925378e-06 90 -1 1975.5137 
17.673388 1.0231009 12.527763 13.147506 -0.20601881 0.99709843 0.5 -44.10168 1040.6977 -77.883211 -1.1661173 0.493628 0.17997418 1 10 1 2.5126027e-07 -3.990847e-07 -4.7528866e-07 126 -1 1972.4731 
5.6374206 6.3774958 -0.18872908 -0.26996121 -0.078163154 -0.29741941 0.5 -20.654965 1115.9025 37.900512 0.52549878 1.7272468 -2.4555302 1 10 1 -0.00073447208 0.00016120221 -4.0455814e-05 55 -1 2000.0001 
7.8969897 9.8237193 3.8389281 4.0650196 -0.80983101 -0.27106794 0.5 13.527155 999.81435 6.0699892 -0.081380443 1.1558362 1.5145209 1 10 1 -9.7057297e-05 8.5223076e-06 2.9176119e-05 131 -1 1948.1152 
17.201711 4.3290387 8.3052627 9.9540234 1.184203 0.11523711 0.5 -32.984299 1016.5248 28.515213 -1.079203 3.446568 2.248769 1 10 1 7.0234886e-06 1.12446e-05 2.2513095e-05 102 -1 1990.1778 
15.850311 8.6551274 1.5496886 2.4735348 0.4801012 -0.78419016 0.5 -10.510088 1077.5433 35.466713 -3.114427 -2.5722591 3.3973167 1 10 1 -2.1656763e-05 -1.0115959e-05 -3.1264628e-06 134 -1 1998.7638 
17.722146 6.3638218 4.0516522 4.2405484 -0.83189085 0.55812264 0.5 -50.311371 1030.4528 80.884151 -2.5107694 5.0807303 -2.0296477 1 10 1 5.408113e-05 -0.00013647889 -9.2723068e-05 105 -1 1999.1574 
7.2108695 3.6006001 4.0176508 3.4907319 0.48389694 -0.043165901 0.5 18.280807 1055.3125 9.4450264 -0.39780334 1.0791686 1.2089708 1 10 1 -5.513628e-05 2.5763368e-05 1.1726504e-05 112 -1 1977.6715 
18.606327 8.8259146 13.247939 15.498925 -0.010835416 -0.1491364 0.5 17.854667 907.6399 -35.256562 0.11737303 0.61186019 1.8473274 1 10 1 0.00014151577 1.9594226e-05 -1.4737478e-06 126 -1 1965.7149 
3.3505004 3.1762653 2.114313 2.5646791 0.34977974 1.0378858 0.5 36.127057 1000.1431 68.661922 4.2374617 -0.28818294 -0.4055569 1 10 1 -2.3571698e-05 3.0119472e-05 1.4984138e-05 147 -1 1978.1069 
4.8597532 3.3497725 12.262813 13.704666 0.54239126 0.87864965 0.5 7.0211891 1015.7689 6.4076161 0.90005046 1.7374324 -0.88097003 1 10 1 7.2149029e-06 2.1350708e-05 5.7573606e-06 94 -1 1978.2818 
7.8578488 1.6825564 25.173372 24.194253 0.098745514 -0.6576318 0.5 38.316594 630.88627 5.0058705 -0.015670712 -1.151724 -0.060483643 1 10 1 3.8749607e-05 2.6679702e-05 1.390175e-05 95 -1 1989.8539 
8.4949759 3.6020488 9.1695942 10.95977 -0.27338021 -0.23710606 0.5 14.6264 984.16167 -20.950728 1.6158861 0.57430358 -0.37970864 1 10 1 2.178666e-05 -7.2306184e-06 -1.1500226e-05 80 -1 1996.2237 
15.198057 2.1622281 14.369828 16.232013 -0.72634016 0.37466578 0.5 -28.971296 662.09654 -48.311815 -2.0282234 -2.6371101 -1.9794284 1 10 1 4.1264066e-05 -3.5486572e-05 -1.5284755e-05 79 -1 1994.7997 
2.5636971 9.2762319 10.001414 11.27342 0.54339221 0.41412251 0.5 53.889101 1001.508 -46.858036 0.17501275 -1.8791645 1.0210087 1 10 1 -0.00017540421 0.00028342954 -4.0353485e-05 122 -1 1993.4831 
10.187034 3.0814699 18.467072 19.964118 -0.44043004 -0.96038472 0.5 -15.429889 1051.1057 39.043185 -0.30873759 -1.0063022 -1.181954 1 10 1 -4.4626278e-06 -9.5597788e-06 -4.9012026e-06 142 -1 1994.6291 
6.0363091 8.9741668 20.231175 21.38046 0.56850489 -0.45806608 0.5 -40.102649 882.50263 41.37653 -1.1261633 -0.63593975 -0.021391941 1 10 1 -2.4805521e-05 -2.5585611e-05 2.695942e-05 135 -1 1984.4925 
5.7278949 2.1905912 14.253536 16.358746 0.0436384 -0.26063988 0.5 45.149821 960.02967 47.019052 -1.2120274 1.1733684 -1.6657478 1 10 1 3.1273144e-06 -4.1121598e-05 2.3866593e-05 143 -1 1994.1575 
19.429534 8.2892068 16.844851 18.000535 -0.59654333 -0.80992334 0.5 82.234361 1081.5394 -69.426484 -1.2474658 0.28229015 -0.96513878 1 10 1 -7.5607922e-06 -7.1336043e-06 1.0488108e-05 113 -1 1932.8235 
16.720836 8.8008221 -1.1986998 -0.014772325 -0.024004803 -0.043739756 0.5 31.347206 19.713177 12.460734 -0.074512823 -0.12774668 0.091653109 1 10 2 0.00010306558 -0.00023696567 -0.00015541607 16 -1 2000.0001 9.5634641e-05 -0.00010443733 -0.00021812969 28 -1 2000.0001 
10.875681 5.7249701 1.9877011 1.2983407 1.534734 0.6378981 0.5 6.0961909 1062.4935 -65.285472 0.24744424 1.5558939 1.6493128 1 10 1 -5.4697167e-05 1.0179214e-06 1.1255896e-05 93 -1 1978.5825 
12.720319 3.4232893 7.5689163 8.0622899 0.51961598 1.064326 0.5 -19.377234 906.15113 13.334202 -2.3354748 -2.2087543 1.6878131 1 10 1 1.976079e-05 -3.0044531e-06 -3.9391387e-05 146 -1 1995.3607 
8.0474387 0.81152302 6.1131906 7.168293 0.47412585 -1.5101766 0.5 -14.250027 1073.3194 14.618702 0.99218088 -3.4755656 -1.3113143 1 10 1 1.2168924e-05 1.3409433e-05 -6.1171071e-05 103 -1 1973.5541 
10.178793 1.4657348 1.9512953 1.1507963 0.17572088 -0.19371519 0.5 -75.847871 1080.534 2.3773575 -1.6036228 -1.0811774 -0.42998065 1 10 1 0.00013752767 -1.1562675e-05 4.0112319e-06 151 -1 1991.306 
10.870609 9.2269446 0.054760423 -0.7511953 -0.041690305 0.15671981 0.5 7.1192954 1030.2828 -68.42901 -0.76365684 -0.036083587 0.33122543 1 10 1 -1.7751089e-05 -1.7856331e-05 -2.5068887e-05 9 -1 1999.9978 
11.273672 4.0118999 22.385243 22.580544 0.39570748 0.59707208 0.5 19.011705 914.89864 36.400802 0.57329579 -0.61877017 1.587737 1 10 1 6.6872344e-07 9.516826e-06 5.1808382e-06 92 -1 1963.8488 
11.566069 2.3059086 14.219071 15.14436 -1.4040965 0.40394237 0.5 39.46032 874.44668 -12.714401 -0.55119732 2.4801555 1.0670052 1 10 1 -9.4787314e-06 2.0147381e-05 -2.6462209e-05 79 -1 1999.3463 
7.4710399 8.5091879 12.209586 14.330308 0.83625747 0.45621981 0.5 35.764093 965.71112 -4.1042842 0.67146891 -3.7204876 -0.48493766 1 10 1 3.5759467e-05 -9.0006995e-05 -4.4576422e-05 150 -1 1987.8891 
3.4625092 1.025919 1.6061559 2.196039 0.075793207 -0.3397204 0.5 10.478217 1021.4452 67.674959 -0.33737151 -4.452012 -1.5146119 1 10 1 1.9590144e-05 1.8823884e-05 -1.949099e-06 121 -1 1990.0013 
17.710553 9.1757971 1.3752884 2.3605114 0.013270996 -0.38654119 0.5 -49.918395 1015.4436 27.190256 -0.21049324 2.75649 0.294139 1 10 1 -1.5306571e-06 -2.7098306e-06 -4.8209196e-06 93 -1 1999.8568 
17.899661 0.81616589 17.39925 18.651908 0.44726085 0.15952511 0.5 15.243185 830.35706 17.671522 -0.59209743 3.2808952 -0.43834922 1 10 1 -8.6905798e-05 0.00014950641 4.6934927e-05 126 -1 1982.7151 
8.8475273 1.2041574 18.244796 19.053078 0.11743553 0.080909713 0.5 -39.905571 853.06707 -16.975609 1.2822095 0.36118728 2.0020785 1 10 1 2.2949876e-06 1.9571103e-06 -2.2809009e-06 74 -1 1944.7945 
8.4646612 1.3053451 4.985326 6.4688512 0.31129395 -0.59603677 0.5 15.319739 852.81201 -41.508714 -1.7467233 -1.6296862 -2.6007773 1 10 1 3.236595e-05 -9.3107664e-05 -2.0017604e-05 81 -1 1999.248 
12.614647 0.12035616 15.176013 16.891964 0.23377459 0.61788602 0.5 49.760984 954.04379 -41.564386 -0.46004131 2.9366079 1.0350279 1 10 1 9.354108e-06 -5.088733e-06 2.3141271e-06 160 -1 1959.9634 
3.9991646 6.4185597 17.747737 18.901185 -0.14779043 0.67718715 0.5 71.380829 950.9988 -29.449235 0.226047 -0.91534593 -1.1141027 1 10 1 3.9617541e-05 3.3723603e-05 -2.3260771e-05 117 -1 1938.856 
2.8617388 8.4913967 21.644749 21.510573 -0.40844515 -0.036606557 0.5 -33.893807 841.66436 -19.818727 -0.5070919 0.18489609 -0.020609533 1 10 1 -2.1590658e-05 -2.5866217e-05 8.7803465e-06 117 -1 1926.0771 
16.004969 2.2213482 -0.24702792 0.22102956 -0.20560131 0.16153113 0.5 0.72942472 1097.9346 -52.512128 0.50911658 0.61221835 0.37024484 1 10 1 -4.9368733e-06 1.5977458e-05 1.0189648e-05 57 -1 1999.5382 
3.9452812 1.0061288 7.5577389 8.5485973 0.065664948 0.079720984 0.5 -19.734074 1059.8455 0.10934358 -1.2409372 0.027493016 -0.46403262 1 10 1 -1.9852093e-05 2.4483683e-05 1.1588959e-05 128 -1 1992.7488 
4.0996802 9.0204042 -0.17453001 0.23076687 -0.028505706 -0.3384954 0.5 3.5816373 421.22798 2.2349588 0.043791634 -0.63676885 -0.35990018 1 10 1 -0.00011762312 -0.00017238776 -0.00019620027 22 -1 2000.0001 
14.999247 2.0456794 11.279627 12.635445 -0.82290431 -0.18499633 0.5 -92.671415 986.77991 48.853802 0.1190051 1.9415745 0.4322886 1 10 1 0.00010012844 -3.7742671e-05 -0.00019828431 143 -1 1996.7078 
13.677275 5.3147519 14.534653 15.987081 -1.0462395 1.2188263 0.5 -59.260979 701.91717 33.891163 -2.4992702 3.2263607 -0.18240851 1 10 1 2.577862e-06 -3.5763194e-05 1.5539322e-05 69 -1 1994.0526 
18.38536 4.8821281 1.5784106 2.2902315 -0.36470457 -0.89683384 0.5 -15.396907 1049.8166 -35.495232 1.5568347 3.7565409 1.2981761 1 10 1 8.661758e-05 0.00010378287 -1.4830149e-05 125 -1 1999.6557 
2.9232475 9.5261396 13.027561 15.386539 0.23298981 -0.38802841 0.5 24.328567 1039.6001 19.899078 -0.61124165 -0.20689768 -1.9337144 1 10 1 4.4990763e-05 -2.6880483e-05 2.4568403e-07 150 -1 1996.0204 
12.519011 4.2879124 16.708774 18.370027 -0.21813459 -0.40033614 0.5 30.544158 675.23187 32.939788 -1.2343288 0.98353472 0.17119661 1 10 1 1.08016e-05 7.7267283e-06 -6.2982848e-06 111 -1 1998.4349 
12.137688 8.0734245 29.408813 26.793123 0.75042713 -0.20301446 0.5 -54.041071 621.21227 -21.150201 1.2763619 1.0005892 -1.168784 1 10 1 1.6283463e-05 -1.0530826e-05 -3.7282922e-06 84 -1 1583.9539 
17.662603 7.5578468 8.6118254 9.6880149 0.10538506 1.0790036 0.5 33.89901 953.75631 3.4669446 -0.53624231 -3.8859292 -0.45024798 1 10 1 -0.00010463403 -0.00025934163 0.00013216979 113 -1 1987.9412 
6.4831004 8.7418787 16.692005 18.297856 -0.12012451 0.17110699 0.5 36.017799 698.46107 -2.6920546 0.40985535 0.64140799 1.276029 1 10 1 -8.1903719e-06 -6.0721065e-05 -1.7214321e-05 140 -1 1994.0225 
16.243245 1.6169684 6.9875083 8.7448281 0.089019992 -0.31640164 0.5 -36.179243 915.14258 -52.072106 2.5718303 1.6368354 -0.090443719 1 10 1 -2.3039232e-05 5.7243982e-05 6.6694902e-06 104 -1 1975.5983 
7.780773 1.7228542 13.863675 15.91609 -0.010565596 0.068449894 0.5 19.228645 886.42948 -29.303769 1.1939027 -0.21635891 -0.13790263 1 10 1 1.7038683e-05 -1.8074277e-05 4.6686361e-08 159 -1 1997.508 
17.502864 7.3776475 13.349667 15.778913 -0.0039573669 -0.28408869 0.5 -29.840629 1023.4654 -11.843534 -0.96937531 0.038744788 1.1585423 1 10 1 3.1323715e-05 3.5005744e-05 4.5444461e-05 86 -1 1979.7418 
7.8196976 2.4604639 10.513762 11.689108 0.5540464 0.25527055 0.5 -30.895495 1042.1683 36.086452 -0.97853478 2.4689799 -0.30876138 1 10 1 8.656587e-06 3.3845733e-06 -2.6926607e-05 123 -1 1968.0395 
1.2307107 7.6836856 17.286958 18.492772 -0.52704356 1.1216652 0.5 -11.520531 963.61988 -13.377703 -0.43196885 -0.075644447 2.6458393 1 10 1 3.6629184e-05 4.7648436e-05 1.2443341e-05 188 -1 1966.5978 
17.656509 7.3700432 4.1692397 4.5087446 -1.5130726 0.0017945865 0.5 -29.568467 1003.3204 -85.30122 0.7428174 -2.0757331 0.048409869 1 10 1 -1.1807624e-05 1.1941427e-06 -7.2737978e-06 148 -1 1999.9409 
0.18930451 9.877605 10.049358 12.883986 0.015096745 0.029010558 0.5 51.518395 1001.0876 22.285622 2.3109139 2.3059316 0.63526365 1 10 1 2.0233663e-05 -6.7043084e-06 -4.6713523e-06 96 -1 1998.9775 