restart_version 2
name H40A28L2M0.5B0.5
xmin 0 xmax 20 ymin 0 ymax 10 zmin 0 zmax 48
dt 0.0001 t 1900 tmax 2000 save_count 500000
dim 3 gravity 0.46947156 0 -0.88294759
options_fstat 0 options_data 0 options_ene 1 options_restart 2
Species 1
k 200000 disp 25 kt 57142.857 dispt 25 mu 0.5 rho 1.9098593 dim_particle 3
Walls 1
numFiniteWalls 0 normal 0 0 -1 position 1.7
WallsPeriodic 2
normal 1 0 0 pos_left 0 pos_right 20 shift 20 0 0
normal 0 1 0 pos_left 0 pos_right 10 shift 0 10 0
Particles 8067
19.330017 1.0144385 -1.4931023 0 0 0 1 0 0 0 0 0 0 0 0 0 
19.998067 4.801808 -1.6774446 0 0 0 1 0 0 0 0 0 0 0 0 0 
9.0009585 2.2610568 -0.7392901 0 0 0 1 0 0 0 0 0 0 0 0 0 
11.319671 5.3727791 -2.0989941 0 0 0 1 0 0 0 0 0 0 0 0 0 
5.4432148 0.69356462 -2.3006582 0 0 0 1 0 0 0 0 0 0 0 0 0 
2.4775488 2.183002 -0.97341932 0 0 0 1 0 0 0 0 0 0 0 0 0 
10.381533 3.856421 -0.96416921 0 0 0 1 0 0 0 0 0 0 0 0 0 
11.232541 0.3387141 -2.1629756 0 0 0 1 0 0 0 0 0 0 0 0 0 
10.273786 0.7403499 -0.46097249 0 0 0 1 0 0 0 0 0 0 0 0 0 
12.119962 9.1507635 -0.7747042 0 0 0 1 0 0 0 0 0 0 0 0 0 
17.507186 1.8130578 -1.1150478 0 0 0 1 0 0 0 0 0 0 0 0 0 
0.10339191 6.7847973 -1.8655902 0 0 0 1 0 0 0 0 0 0 0 0 0 
4.6265159 2.1817674 -1.1848395 0 0 0 1 0 0 0 0 0 0 0 0 0 
2.3793022 7.152178 -0.54923244 0 0 0 1 0 0 0 0 0 0 0 0 0 
9.618117 6.9437624 -0.24860092 0 0 0 1 0 0 0 0 0 0 0 0 0 
8.2963885 8.5273967 -1.9377969 0 0 0 1 0 0 0 0 0 0 0 0 0 
17.996162 9.5389345 -1.478369 0 0 0 1 0 0 0 0 0 0 0 0 0 
3.8480144 3.7084524 -2.2709868 0 0 0 1 0 0 0 0 0 0 0 0 0 
14.569038 4.5746731 -2.1100379 0 0 0 1 0 0 0 0 0 0 0 0 0 
11.60796 2.1562788 -1.2803502 0 0 0 1 0 0 0 0 0 0 0 0 0 
1.9033776 4.2527062 -1.9295815 0 0 0 1 0 0 0 0 0 0 0 0 0 
9.6787983 6.494031 -2.1903785 0 0 0 1 0 0 0 0 0 0 0 0 0 
5.3729973 8.2317838 -0.24498363 0 0 0 1 0 0 0 0 0 0 0 0 0 
7.1046979 4.352739 -1.8206174 0 0 0 1 0 0 0 0 0 0 0 0 0 
4.7818852 0.33002225 -0.44813685 0 0 0 1 0 0 0 0 0 0 0 0 0 
19.413485 8.3252937 -0.80739518 0 0 0 1 0 0 0 0 0 0 0 0 0 
16.273632 0.41309669 -1.9180405 0 0 0 1 0 0 0 0 0 0 0 0 0 
10.267362 8.575693 -2.1607585 0 0 0 1 0 0 0 0 0 0 0 0 0 
16.210608 7.4546657 -0.77787905 0 0 0 1 0 0 0 0 0 0 0 0 0 
1.4017444 3.9329842 -0.024649341 0 0 0 1 0 0 0 0 0 0 0 0 0 
14.559586 9.4823649 -1.5499246 0 0 0 1 0 0 0 0 0 0 0 0 0 
0.89243535 5.855513 -0.24304626 0 0 0 1 0 0 0 0 0 0 0 0 0 
6.5814665 9.3658123 -1.367215 0 0 0 1 0 0 0 0 0 0 0 0 0 
12.371518 4.0054793 -1.0762213 0 0 0 1 0 0 0 0 0 0 0 0 0 
5.3888749 3.9629039 -0.65259336 0 0 0 1 0 0 0 0 0 0 0 0 0 
11.885399 5.7239607 -0.17468586 0 0 0 1 0 0 0 0 0 0 0 0 0 
1.9694367 6.2128737 -2.2654843 0 0 0 1 0 0 0 0 0 0 0 0 0 
1.3240057 8.7162954 -1.2277861 0 0 0 1 0 0 0 0 0 0 0 0 0 
6.7173069 0.83747111 -0.046913899 0 0 0 1 0 0 0 0 0 0 0 0 0 
6.8644238 5.3678862 -0.068038272 0 0 0 1 0 0 0 0 0 0 0 0 0 
8.8201676 5.1330734 -1.0194902 0 0 0 1 0 0 0 0 0 0 0 0 0 
14.711867 4.213571 -0.15227394 0 0 0 1 0 0 0 0 0 0 0 0 0 
4.0050126 7.6781626 -1.5827513 0 0 0 1 0 0 0 0 0 0 0 0 0 
14.791158 1.0164942 -0.252422 0 0 0 1 0 0 0 0 0 0 0 0 0 
6.038574 7.6240352 -2.1355829 0 0 0 1 0 0 0 0 0 0 0 0 0 
3.4881521 1.0646865 -2.397689 0 0 0 1 0 0 0 0 0 0 0 0 0 
13.737693 5.9178694 -0.89791124 0 0 0 1 0 0 0 0 0 0 0 0 0 
13.374957 2.6600646 -2.1306228 0 0 0 1 0 0 0 0 0 0 0 0 0 
0.33497185 2.7112414 -1.1908701 0 0 0 1 0 0 0 0 0 0 0 0 0 
13.405396 2.5260049 -0.13938516 0 0 0 1 0 0 0 0 0 0 0 0 0 
7.0155577 2.7023384 -0.700436 0 0 0 1 0 0 0 0 0 0 0 0 0 
13.511428 7.7913334 -1.5279549 0 0 0 1 0 0 0 0 0 0 0 0 0 
11.586472 7.2319552 -1.4531329 0 0 0 1 0 0 0 0 0 0 0 0 0 
8.5291123 0.42952152 -1.3801095 0 0 0 1 0 0 0 0 0 0 0 0 0 
3.1602621 9.4798821 -1.2510768 0 0 0 1 0 0 0 0 0 0 0 0 0 
5.579762 5.770911 -1.5589688 0 0 0 1 0 0 0 0 0 0 0 0 0 
3.4988758 5.0669081 -0.7550967 0 0 0 1 0 0 0 0 0 0 0 0 0 
15.260754 2.8080827 -1.4761412 0 0 0 1 0 0 0 0 0 0 0 0 0 
8.8913668 3.5695487 -2.2570855 0 0 0 1 0 0 0 0 0 0 0 0 0 
7.6871037 6.7628575 -1.2367601 0 0 0 1 0 0 0 0 0 0 0 0 0 
16.633641 6.0268704 -2.1026496 0 0 0 1 0 0 0 0 0 0 0 0 0 
9.4548971 8.9255459 -0.35693579 0 0 0 1 0 0 0 0 0 0 0 0 0 
17.026194 4.6232216 -0.74438735 0 0 0 1 0 0 0 0 0 0 0 0 0 
18.138275 6.7163885 -0.89904905 0 0 0 1 0 0 0 0 0 0 0 0 0 
18.508556 3.495914 -1.478946 0 0 0 1 0 0 0 0 0 0 0 0 0 
1.0529106 0.8638742 -0.49695421 0 0 0 1 0 0 0 0 0 0 0 0 0 
13.108013 0.83602468 -1.3585504 0 0 0 1 0 0 0 0 0 0 0 0 0 
15.226139 5.3026353 3.0307332 4.3999066 -0.040451833 -1.2840448 0.5 -35.963788 1160.6241 14.527974 -0.34299793 -2.1487756 1.2931614 1 10 1 1.3772268e-05 -1.488391e-05 -1.6799421e-05 39 -1 1876.1999 
14.904573 4.2606873 3.3289528 3.7899348 -0.052531571 -1.062017 0.5 40.079175 1118.8643 -3.0421157 0.013635334 -1.4228768 0.068655112 1 10 1 -4.470028e-05 8.6257816e-06 -0.00013003069 67 -1 1899.7574 
0.67040276 0.2273921 2.0673807 2.3851379 0.40364479 0.098529175 0.5 -38.625739 1174.7555 3.0951045 -3.8597197 1.5089961 1.9236501 1 10 1 -4.528203e-05 3.5773719e-06 0.00011608531 68 -1 1886.4974 
18.77003 5.3718578 18.414488 26.374738 0.62003898 -0.30588188 0.5 37.24042 734.49558 4.9896652 -0.75534546 2.8530495 -2.0368234 1 10 0 
13.809241 5.6029139 7.4846165 12.056151 -0.51477723 -0.0043237056 0.5 16.020516 1197.2825 39.252918 -1.2065484 0.89690099 0.48187401 1 10 1 -2.2377023e-05 2.3994711e-05 -5.5248538e-06 29 -1 1482.5046 
11.12451 3.8269626 11.656937 16.181565 -0.30626974 -0.17507508 0.5 -34.043734 1044.9523 1.9220336 -2.2520244 3.116855 2.1239224 1 10 1 3.9619968e-05 -2.7914878e-05 -7.1965645e-05 41 -1 1541.0558 
19.136214 1.2379239 1.4824927 1.8565042 0.12124279 0.31755164 0.5 -4.4315364 1158.7286 -33.029368 -1.2317112 3.878852 0.45773489 1 10 1 1.278438e-05 1.6825114e-05 -5.9646457e-06 43 -1 1897.3697 
3.7173803 4.9365585 32.044893 36.642468 -0.088645357 0.17974989 0.5 32.536772 914.02262 -59.084088 0.58066628 0.81735515 -0.57851177 1 10 1 0.00012821222 -1.1918999e-05 2.656814e-06 72 -1 746.216 
1.3177285 9.6771772 3.5402562 4.5971721 0.3993012 -0.75015626 0.5 -23.540104 1039.529 37.020906 -0.58648944 -0.067247597 -1.6514675 1 10 1 -4.0569926e-05 3.9484072e-06 1.2160128e-06 73 -1 1746.5235 
15.102907 8.2751983 35.841311 39.141044 0.19548656 -0.56873646 0.5 1.2915978 606.1598 -10.111903 -1.155014 0.42787361 -1.4912838 1 10 1 1.5642091e-05 3.2163057e-06 -5.4502729e-06 74 -1 1694.6839 
6.1139233 2.7092279 22.42943 29.122191 0.10407757 0.29172792 0.5 21.662406 825.29118 2.6105958 -0.41509878 -0.29542582 -0.99627445 1 10 1 -1.4081337e-05 -1.4202746e-05 5.9222848e-06 70 -1 529.9537 
5.2970463 4.1778121 25.219185 31.625657 -0.52695791 0.39464524 0.5 54.240684 655.61249 -16.205443 -1.4326365 -0.72119238 -0.10748577 1 10 1 0.00011022948 -6.0865887e-05 -5.0332317e-05 76 -1 1438.2547 
17.932614 5.258116 4.2601211 5.2740049 0.86479626 -0.026502169 0.5 -48.335171 1078.5511 -21.933291 -0.88485776 -0.52372672 0.38140356 1 10 1 -7.3481904e-06 4.7487695e-05 -5.4893031e-06 67 -1 1898.1064 
8.784854 5.1669562 24.642479 31.346444 -0.95853951 0.15638571 0.5 -53.536124 958.29978 -25.35759 0.97916079 -0.58120485 -1.1519564 1 10 1 3.9456386e-05 -1.1419018e-05 3.7290288e-06 78 -1 1715.5259 
19.897527 0.21536295 9.056211 12.599129 -0.34955011 0.038807498 0.5 -26.120471 1008.9789 33.320529 0.090549044 1.3255266 -0.51840553 1 10 1 3.7809636e-05 -7.0808128e-06 -9.3781921e-06 73 -1 1755.0615 
18.305214 3.2661964 9.4266027 12.916442 0.56860454 0.44991935 0.5 -4.4640902 1087.3966 -42.979767 3.5075621 -2.033673 -0.49083684 1 10 1 -7.1197099e-07 1.7919693e-05 3.653007e-06 73 -1 1771.4199 
19.508888 8.5169455 17.173255 23.635742 0.071656451 -0.38347337 0.5 -5.5196675 1014.6231 -8.2736342 -0.55542989 1.8522812 0.019180081 1 10 1 4.785836e-05 6.3816229e-06 -7.1658334e-06 75 -1 1217.0978 
17.40371 6.0754308 4.003426 5.2757008 -0.71426927 -1.2759307 0.5 -19.672311 1100.7253 5.5949037 1.1034001 4.7886028 2.6617209 1 10 1 4.894979e-05 1.7982526e-05 -4.3916818e-05 79 -1 1899.9702 
15.705446 9.7841524 7.4543645 9.9142088 0.47251558 0.25200072 0.5 31.594913 1017.358 -106.03004 -1.3147846 4.7404726 -0.67472222 1 10 1 -1.0838314e-05 -1.4353014e-05 -8.4088423e-06 75 -1 1830.9467 
18.588878 1.348396 21.168503 27.613948 -0.15481079 -0.32348239 0.5 41.930459 1133.9677 1.0697862 1.8075822 0.29485427 0.64513318 1 10 1 -0.00013205276 2.7221371e-05 2.3458892e-05 84 -1 1662.9432 
6.3324687 3.3420799 14.681195 20.961532 0.055513498 0.48471231 0.5 -6.8628874 852.4218 7.5510657 0.80838111 0.13218092 -0.7469132 1 10 1 4.0665621e-05 -1.7893433e-05 -2.3803245e-05 77 -1 1486.7497 
15.422233 6.0795091 12.109538 16.460336 0.020873916 -0.15066868 0.5 -27.006141 1155.006 12.829625 -0.99281677 0.36329796 0.9786578 1 10 1 7.1152586e-05 3.0022472e-05 -2.5196299e-05 72 -1 1895.9856 
15.618871 1.3247109 14.005308 19.283516 -0.10895954 -0.87380297 0.5 -47.472988 1026.9906 -6.7231897 -0.72656129 -3.1033702 -1.0204044 1 10 1 -8.196776e-05 -3.5714165e-05 3.5847841e-05 77 -1 1692.3837 
4.8236353 9.0611485 0.88337655 1.0831937 -0.41279666 0.15565692 0.5 -48.237208 923.39393 -39.137549 -1.2198651 2.7455967 0.53432726 1 10 1 0.00024257322 0.00014021348 1.7659721e-05 22 -1 1899.9667 
11.550954 0.56935149 1.8475953 1.7192382 0.22571138 1.7321776 0.5 -21.461622 958.34717 -28.912729 2.9978156 -0.74060935 -3.7860988 1 10 1 1.4992232e-05 -2.9140927e-07 4.0809374e-06 73 -1 1886.2807 
12.154138 6.5411137 3.9636186 4.1886839 0.26432448 0.39895824 0.5 -0.39836845 1178.1613 -17.802286 -2.999553 5.5450572 -1.1767243 1 10 1 5.2191467e-05 1.2600699e-05 -1.0247518e-05 35 -1 1833.8653 
13.333622 0.90850477 2.0906222 2.8411343 0.20513668 -1.5731576 0.5 48.519746 1060.3439 -27.150937 1.1346388 -0.24143634 1.9851001 1 10 1 4.9607748e-05 -7.7936497e-05 -3.2141525e-05 91 -1 1888.3378 
13.78402 8.6911747 15.815221 20.151031 1.2303243 1.1078693 0.5 5.663586 1004.7434 58.394954 -1.0177928 -2.9310473 1.3053739 1 10 1 -6.5085076e-05 -4.9622006e-05 -1.3115717e-05 83 -1 1897.2247 
0.12097682 9.4920213 29.869967 35.250358 -0.23029063 -0.053306296 0.5 -8.3961357 481.45276 19.364208 -0.066793148 -0.66334616 -0.63338738 1 10 1 1.0195161e-05 -5.6469715e-06 -9.8502774e-07 70 -1 153.0714 
10.706301 6.4416041 17.932658 23.942865 0.19885582 -0.24900145 0.5 22.86857 993.54785 -10.201703 -0.0096037329 3.027606 -1.5506942 1 10 1 -0.00014071427 4.6323338e-05 6.2619653e-06 86 -1 1868.0749 
1.8122203 0.52020588 11.890602 17.446358 -0.44483399 -0.0069652644 0.5 10.134216 1179.0157 36.773984 -0.7679119 -1.1747631 2.5601343 1 10 1 4.1478089e-05 3.0902857e-06 -9.3744837e-06 72 -1 1843.2357 
9.1609126 3.3878159 5.3743922 7.4623589 -0.34589228 0.3893479 0.5 -21.573221 1048.4904 -65.804373 -0.62584788 -1.5064161 -2.1409886 1 10 1 1.8457368e-05 -8.623324e-05 -1.8256444e-05 69 -1 1871.89 
13.129805 9.9287136 2.0775739 2.776704 0.060020534 -0.22768178 0.5 -37.093883 1079.3769 35.649391 1.1047412 -1.9288362 -1.4241751 1 10 1 -2.245854e-06 7.1272291e-08 1.7758957e-05 93 -1 1899.9935 
12.763969 6.8319207 27.258142 33.130518 0.43444659 -0.28298801 0.5 -17.116245 859.81625 -22.016817 -1.0259761 2.1041654 0.40116525 1 10 1 7.6557004e-05 2.6466095e-05 -3.8093117e-05 80 -1 1669.0237 
6.9317477 9.8339309 2.0575777 2.8223151 -0.40822875 -0.48171801 0.5 -27.047009 1122.8242 44.883383 -1.2552114 0.86226288 -2.7459685 1 10 1 -1.0531394e-05 3.6101922e-05 -1.904755e-05 90 -1 1898.3263 
11.491901 9.5360848 20.616519 26.841763 0.60953097 -0.81189331 0.5 -29.431223 959.05757 -10.971881 -0.99584343 0.90459566 0.32841131 1 10 1 -7.2901804e-06 1.8282306e-06 -3.4240305e-06 80 -1 1851.6479 
16.366585 6.887782 8.5566651 12.18693 0.51291047 -0.16023179 0.5 -23.58727 1007.1129 70.854572 -1.214602 -1.6288614 0.14004445 1 10 1 -1.962273e-05 -1.9864417e-05 3.4980854e-05 85 -1 1819.6688 
14.573342 4.7999066 1.2264783 2.2419158 1.5520808 -1.0939938 0.5 47.394722 1271.687 10.268889 2.1703486 1.3696036 -0.53108785 1 10 1 7.2517856e-05 -7.4618734e-05 4.0233743e-05 41 -1 1899.9588 
15.814152 4.6278308 16.125079 22.883837 -0.59861127 -0.41585389 0.5 -9.4992115 1134.0976 12.26808 0.13997665 2.0359089 -1.5046408 1 10 1 7.6019568e-06 -0.00010230125 -6.1897303e-06 86 -1 1859.3139 
1.4723334 1.1091158 8.8978754 12.55509 -0.71716089 -0.55876011 0.5 -23.139344 1035.3018 41.268229 -0.4453734 -0.21127578 0.65684456 1 10 1 -1.9729304e-05 1.6378132e-05 4.6069384e-06 71 -1 1850.2024 
5.0141381 1.0522886 0.99115272 0.73464609 -0.2494065 0.6382858 0.5 8.0656635 856.65051 -26.212209 1.8732645 -0.31445227 2.206248 1 10 1 1.436625e-05 1.5343854e-06 6.3218702e-07 24 -1 1899.6499 
0.36063999 9.8698599 11.781553 16.744528 0.12520894 -0.72292858 0.5 -28.287072 1154.3878 -8.3334563 -1.2453143 -0.47194604 2.9074087 1 10 1 4.4389711e-05 6.2082882e-05 -1.8638548e-05 106 -1 1856.7049 
3.6995397 2.0205338 1.9325473 3.1602946 0.8242002 -0.43325586 0.5 28.280914 1013.7863 -53.419276 0.40691111 3.9529521 -1.7073564 1 10 1 -0.00017282908 -4.8746365e-05 0.00012366481 69 -1 1893.0396 
14.383233 2.734167 13.457736 18.823075 -0.21875194 -1.0260793 0.5 -38.633533 988.99416 -47.838347 -1.4112181 3.1624795 0.51808041 1 10 1 2.1488643e-05 5.2829657e-06 -1.9029838e-05 89 -1 1895.5878 
18.001929 8.0905272 3.5652509 3.0999978 -0.52536098 0.20439944 0.5 -39.365402 1094.7841 27.282951 2.4300768 1.0866085 0.39454915 1 10 1 0.00011151975 5.5378468e-05 3.5670327e-05 101 -1 1894.8586 
4.772809 7.7425773 16.550992 23.203642 -0.18343086 -1.1787971 0.5 -23.676901 939.90162 8.8035427 -0.17936066 2.5096871 2.9506965 1 10 1 8.4741822e-06 1.6240885e-05 9.4626116e-06 83 -1 1851.2124 
19.294238 4.2265856 7.8457649 10.567653 -0.31838627 0.83891003 0.5 44.261944 1104.1444 -93.16692 1.4978989 2.5749042 1.3866436 1 10 1 1.5038338e-05 1.7500056e-05 -2.2594075e-05 88 -1 1855.8519 
0.57046523 6.2600245 4.5273516 5.2805122 -0.070579677 0.37599185 0.5 10.800829 1066.3103 -46.994489 -0.55947175 2.9178512 -2.582687 1 10 1 4.9330283e-05 9.0087366e-06 4.2281612e-06 92 -1 1886.8278 
1.5776252 6.1436748 13.355343 18.698839 -0.55999713 0.50733744 0.5 -2.110189 968.09561 -33.213103 1.55911 0.46227533 -1.3347923 1 10 1 2.8892201e-05 9.0694977e-05 3.5907086e-08 94 -1 1859.0538 
5.9656646 5.6538587 18.4544 23.474908 0.63732587 0.32699803 0.5 -39.52758 1032.0858 -73.566831 -0.023642082 3.7840064 -2.3042231 1 10 1 -5.5280528e-05 2.8484199e-05 8.5727104e-06 96 -1 1849.2536 
14.223481 9.6271119 19.754901 26.759128 1.066548 -0.30377396 0.5 4.4181871 863.92981 18.202736 0.55644965 -1.4672993 -1.200637 1 10 1 9.8950474e-05 -2.1540431e-05 -3.4247769e-05 102 -1 1885.3061 
11.196082 2.5982471 21.124008 28.01066 0.18319014 0.24211774 0.5 46.457063 727.95877 11.383533 -1.9310248 -1.9585638 1.1446735 1 10 1 -1.4418375e-05 -5.1495964e-06 1.0514188e-05 70 -1 1868.1207 
3.4000886 3.8543208 9.669067 13.332841 -1.151514 -0.19045612 0.5 23.738498 1068.6209 -31.656364 -0.34102687 1.9779079 -1.5473176 1 10 1 -8.3471255e-05 -4.4782466e-05 1.7513063e-05 113 -1 1888.9498 
12.795449 7.0932684 4.7071792 7.0792884 0.25009807 -0.67297604 0.5 61.303454 1045.5528 30.107838 -3.1918905 1.3622368 1.4544967 1 10 1 -4.4798483e-05 -4.9284134e-06 5.7835904e-06 92 -1 1899.7287 
8.3225071 1.0024621 10.837635 14.641785 -0.30929326 -0.23710483 0.5 -6.6400207 998.54955 13.796941 -1.2477402 5.3692137 1.113077 1 10 1 -1.2097194e-05 -7.4042814e-06 1.7782969e-05 106 -1 1873.9242 
0.13827989 3.8830569 5.630574 7.8564745 0.33572795 0.98486213 0.5 22.118544 1119.0796 -55.950202 0.21620785 -1.3822292 -2.8155036 1 10 1 -6.9738804e-05 -9.4466415e-06 2.1399976e-05 67 -1 1833.1719 
0.93153255 4.9275931 16.841156 23.695958 0.20624942 1.2918736 0.5 -5.2735661 916.49337 -1.5143001 3.2790758 -2.6225085 -1.2265951 1 10 1 -9.5755369e-05 7.569746e-05 -2.4783494e-05 83 -1 1877.6473 
8.1427905 8.438107 1.3983241 -0.1364892 0.36574816 0.18225264 0.5 56.265771 1122.1158 -30.73214 -1.3502946 1.9179081 0.0049305679 1 10 1 -7.9742684e-06 0.00014630552 -3.121121e-05 22 -1 1898.0566 
16.218433 1.8491565 28.437664 33.740435 -0.14531303 -0.13718443 0.5 9.2947552 755.04331 -61.554315 0.95006606 4.0553113 -2.29321 1 10 1 -1.5005796e-05 -0.00010415336 -2.5995795e-05 95 -1 1822.8776 
12.146231 3.6001374 14.776633 20.66157 -0.63980266 0.78747331 0.5 -13.182571 1091.7356 -54.853724 2.0259166 4.0649147 0.56714215 1 10 1 -5.9358875e-05 -1.4002134e-05 1.0059678e-05 123 -1 1861.9457 
4.8849413 2.5957925 15.468233 19.997531 0.82440574 1.7975851 0.5 -11.517785 849.06531 -25.426352 2.8513648 -1.614669 -3.4066412 1 10 1 -5.232508e-05 2.6893023e-05 3.212872e-05 117 -1 1708.6479 
14.267645 1.8297122 22.36084 27.718688 0.32219575 0.71102539 0.5 49.042433 771.56326 -18.76744 -0.18289309 0.10196829 0.25175682 1 10 1 -3.9284842e-05 3.6486137e-05 2.662311e-05 117 -1 1863.4192 
7.72522 4.4718478 10.421152 14.149365 -0.16922418 -0.18063773 0.5 27.723063 1104.0213 -4.0738059 -1.7317812 1.1556765 0.0076076547 1 10 1 4.8830807e-05 -1.9651038e-05 -3.0720064e-05 72 -1 1898.3549 
10.965343 4.4821845 6.5163783 7.9967197 -0.67612876 0.91735231 0.5 33.365469 956.26855 26.125043 0.070667112 0.97435465 -4.3417301 1 10 1 5.3872202e-06 4.3542644e-05 6.3708961e-06 67 -1 1894.8798 
15.988444 8.8707701 25.902727 32.4943 -0.19718412 -0.34910197 0.5 24.775369 954.17938 -10.083761 1.9861995 1.8584436 1.8658247 1 10 1 -1.3799148e-05 -7.554332e-06 2.5727806e-05 100 -1 1861.3329 
15.216221 5.8888686 -1.1999714 -0.20416077 -0.044215895 -0.22954903 0.5 29.279725 -80.718338 -76.631457 -0.42014182 -0.54534484 0.27285886 1 10 1 -1.8256271e-07 -3.6657742e-06 0 -1 0 1899.9793 
12.304883 0.160208 11.323528 16.128113 0.56812482 0.39791693 0.5 -1.2731581 911.77952 -62.247465 0.35911184 2.7699896 0.55795903 1 10 1 1.2898592e-05 1.0358532e-05 -7.2393401e-05 108 -1 1884.6385 
7.8443611 4.6129171 12.295714 16.872945 0.12937107 -0.83212112 0.5 -14.313068 1022.176 -50.4025 -0.78214871 2.2266969 0.14591516 1 10 1 0.00014316699 -4.1218384e-05 -8.3253216e-05 88 -1 1892.0072 
1.8075797 6.5020262 17.732606 24.658365 -0.0068326514 -0.97071492 0.5 -42.055565 1133.1462 58.840735 -1.5022457 -1.7406817 1.2635256 1 10 1 6.310295e-05 -3.2399874e-06 -3.7519612e-06 96 -1 1890.2382 
16.628711 1.5850688 11.247673 15.209395 0.20489301 -0.4107205 0.5 -25.971488 1061.4083 56.240855 -0.5768281 0.9148518 2.1327273 1 10 1 -3.1304294e-05 1.7830617e-05 4.7764193e-05 113 -1 1862.7758 
12.88597 7.4899386 26.51098 32.444819 0.2592496 -0.37560242 0.5 -31.255555 797.39864 24.551258 -0.48321087 -0.63486844 -2.4575359 1 10 1 -1.6505959e-05 8.6917834e-06 4.3361093e-06 100 -1 1899.9621 
7.3487788 8.5522756 0.30607341 0.28421373 -0.35703362 0.42538582 0.5 0.8846043 980.77224 -21.163408 0.92930893 -0.059298264 -3.4819715 1 10 1 -7.1520734e-06 -8.9634388e-06 -2.3393489e-07 124 -1 1899.6113 
4.9460967 9.8910017 14.899424 20.150568 0.29574765 -0.97363768 0.5 -85.34139 940.05792 40.395625 -1.2858523 2.2875139 -1.4709552 1 10 1 -6.9575108e-05 -1.8894136e-05 7.6748785e-06 94 -1 1886.9564 
16.558663 6.7089879 2.3740572 2.293717 0.59517236 0.48083307 0.5 25.666986 1095.7894 40.464741 -1.6433533 0.20133144 -2.3749321 1 10 1 4.416767e-06 1.4315843e-05 -1.6159384e-08 28 -1 1889.6839 
11.197357 4.0553529 1.6847652 2.8153912 0.93127459 -1.6054869 0.5 -35.680801 993.10171 -15.533088 -1.3909176 6.7251536 1.1878863 1 10 1 -2.7067591e-06 8.6868359e-05 -2.1076573e-05 67 -1 1898.2691 
8.6192561 0.57417415 7.1783533 9.1111291 -0.7842525 -0.11914415 0.5 -6.6183328 1118.9768 38.57408 -3.0825326 1.8052148 -1.7132112 1 10 1 -1.0155306e-05 -1.2239847e-05 9.5408288e-06 85 -1 1894.0538 
16.044541 4.9941181 7.0749442 9.4640159 1.4741407 1.2740475 0.5 35.757362 1014.9748 -44.297628 -1.9061559 -0.14720614 -0.52004332 1 10 1 -6.0448869e-05 6.621963e-06 5.4590815e-05 122 -1 1842.9458 
15.149845 7.9116357 7.8340376 11.701107 -0.062616632 1.382429 0.5 -12.451248 1043.5454 39.103004 -0.97889379 0.025170055 2.302906 1 10 1 -5.4488156e-05 6.735989e-07 1.1215473e-05 103 -1 1899.014 
9.7732537 7.5648222 1.1596394 0.88374935 -0.23082003 -1.4939677 0.5 -8.4836392 1231.3936 28.813308 -0.8041332 0.31517596 0.81663263 1 10 1 2.844048e-05 -3.6474667e-06 1.7823201e-06 13 -1 1887.0555 
4.8041248 5.5462357 20.423501 25.446789 -0.33264048 1.1448557 0.5 5.4941896 944.64441 -50.93059 -1.7170645 -1.0556714 2.2138159 1 10 1 -1.5184568e-05 -0.00013437176 2.5242496e-05 100 -1 1415.6314 
8.2231308 3.3530349 9.3914794 13.464582 0.71803158 -1.4423405 0.5 68.697171 964.31724 -65.322188 2.4384071 0.58927863 -1.6356551 1 10 1 -5.4626889e-05 6.6440587e-05 0.00015987919 106 -1 1888.5694 
0.87570294 9.7022595 17.23072 22.767764 0.20724437 0.076271395 0.5 -42.455376 998.62864 -57.641457 -0.82592265 2.5085865 -0.093839177 1 10 1 6.2566727e-06 4.8095718e-06 1.5747304e-05 86 -1 1813.6472 
7.1054307 5.3861661 14.019905 18.779284 -0.83126475 0.40402443 0.5 -35.466162 978.54428 -24.297305 -1.5574197 -1.2682913 -0.90008307 1 10 1 1.4136689e-05 -1.3506086e-05 -1.2882086e-05 126 -1 1875.5803 
13.006271 5.6284086 11.604888 16.381537 0.34161502 0.13482635 0.5 -22.379175 1078.289 -6.2487853 2.5156728 1.7310987 -0.26333282 1 10 1 -5.5655887e-05 -5.5518256e-05 3.7226741e-05 136 -1 1869.1226 
19.321738 5.4936253 28.731917 35.548634 -0.71086248 0.61719638 0.5 29.403992 832.5957 24.283043 0.82775049 -1.1719093 -0.7472839 1 10 1 -3.06472e-05 -1.4829141e-05 5.6714335e-05 146 -1 1534.5341 
16.423373 6.2278201 15.44647 21.092835 1.091105 -0.23238598 0.5 0.30855261 1135.0224 76.405343 -3.2405583 0.98056604 -0.88036712 1 10 1 -2.2621958e-05 4.3776284e-05 1.1424047e-05 105 -1 1862.7819 
11.361761 5.5657837 8.3474148 11.677051 0.060288984 -0.85088596 0.5 -34.722791 1189.2799 -37.845972 0.13976232 0.89926471 0.23204416 1 10 1 -2.2015312e-05 -1.5018764e-05 -3.6715004e-06 119 -1 1876.7429 
10.252075 4.112689 34.752959 38.567343 -0.26887787 0.13947514 0.5 5.7001153 515.80643 23.793947 0.19852143 -0.63407877 -0.48536272 1 10 1 -1.2020336e-05 9.2726019e-06 2.2356861e-06 95 -1 1613.1602 
18.829392 8.8888136 23.340705 29.966255 -0.40554185 0.097206918 0.5 -20.999275 963.11041 4.3452549 0.5724961 0.14875681 0.51502755 1 10 1 6.9333199e-05 8.0005674e-05 0.00011511123 100 -1 1822.2381 
0.035715939 4.8488883 7.5911285 10.101672 -1.1988349 0.59526613 0.5 13.001533 851.4864 -2.7762694 -0.44138832 1.3065198 -2.2302036 1 10 1 -8.5521958e-05 0.00012821783 7.3801422e-05 113 -1 1899.8825 
1.778271 9.1682539 35.025683 38.683899 -0.02405695 -0.0011282147 0.5 -46.50017 640.9287 28.456602 0.51869115 1.2463074 0.98451935 1 10 1 1.3272108e-05 1.0124771e-05 4.3535643e-06 151 -1 1527.1363 
18.364359 1.0910829 6.6090628 8.7027666 0.80836451 0.63211262 0.5 45.874111 1169.5421 -34.256174 -1.5322273 -0.2906692 0.73118221 1 10 1 -1.2924888e-05 -6.6464735e-06 2.3685584e-05 82 -1 1891.5217 
11.415482 6.6299315 29.940205 35.367055 -0.26687748 -0.25931752 0.5 80.059527 992.19653 -5.3130934 0.11165753 1.1944508 0.49803986 1 10 1 1.5395709e-06 9.4273755e-06 -8.3935345e-06 151 -1 1872.511 
17.888677 5.9550585 2.3349962 3.5944489 1.5438514 0.67957397 0.5 -6.6511099 1143.9629 -11.965803 -1.7410235 2.8203601 1.6770911 1 10 1 5.8419819e-06 1.8712021e-05 1.0523531e-05 140 -1 1896.7594 
16.893373 3.5441813 1.1450763 0.94014311 0.43341526 0.98431156 0.5 -13.83609 1064.1114 41.11598 -1.3608493 1.7500152 -0.71324467 1 10 1 0.00010584585 1.4475754e-05 2.1984877e-05 49 -1 1896.4341 
5.0059204 5.0912239 5.1919588 6.4930419 -0.88639853 0.78696354 0.5 15.988989 1128.3948 10.511359 -3.1319222 -2.4627177 -5.4489235 1 10 1 6.9479755e-05 1.9749877e-06 -2.0606103e-05 114 -1 1882.4475 
16.72149 8.799201 -1.2002896 0.27666153 -0.2751366 -0.15987433 0.5 40.533087 19.354843 7.0860858 0.40662632 0.60649064 -0.30074058 1 10 3 0.00020761949 -0.00037494545 -0.00094234952 28 -1 1900 0.00014245981 -0.00032942846 -0.00022331652 16 -1 1900 -0.00037738464 -0.00038924962 0 -1 0 1900 
19.117258 5.5541373 4.2426259 6.306942 -0.48484683 0.9959591 0.5 -11.118549 1088.4214 -22.93667 -1.1103197 -0.11793744 0.16683317 1 10 1 1.2966831e-05 -7.1729488e-05 -0.00015967074 79 -1 1899.7061 
16.558247 3.1405113 6.8881573 9.8184818 0.76993892 0.45884166 0.5 -36.969726 1076.2525 16.444351 -2.2608858 3.1841526 -1.4477621 1 10 1 -0.00012113461 -8.1721092e-05 8.9306672e-05 158 -1 1896.9037 
4.181435 0.49329544 17.500372 23.86592 0.54684611 -1.6419214 0.5 32.632387 747.48545 -17.191942 -0.5706935 -0.77932634 -0.34987555 1 10 1 -1.3636958e-05 6.5665247e-06 6.3494948e-06 148 -1 1896.5578 
1.0358338 1.8680999 9.4105428 13.868591 0.30015256 -0.50339613 0.5 -18.679914 1012.342 35.19553 0.12986782 1.4167999 0.65613213 1 10 1 2.5374901e-05 6.8430718e-05 -7.200428e-05 106 -1 1899.9653 
17.821193 7.011588 11.792178 16.753154 -0.40729535 0.96024643 0.5 -8.4606451 1088.7988 47.975962 1.4307956 1.133739 0.35359602 1 10 1 -1.6497549e-06 2.6733081e-05 -7.262736e-05 103 -1 1871.595 
14.997523 1.7664318 9.553039 13.192636 -1.0629705 1.5278684 0.5 5.9284521 1034.6331 -26.537673 -1.5193554 0.7542055 2.1476174 1 10 1 9.8713264e-06 -1.4213177e-05 -6.0806947e-06 82 -1 1894.6373 
3.2565368 9.8308482 3.5286222 5.0657725 -0.19778244 1.0856617 0.5 29.595582 923.7513 -57.963275 -0.67538979 1.4510247 -0.30044579 1 10 1 -4.0741593e-05 3.826418e-06 6.1268514e-05 75 -1 1897.2279 
12.183042 3.6487142 13.045425 17.802254 0.45215696 0.5410078 0.5 -33.580646 1051.7332 -10.834106 -1.9661714 -2.5648842 -1.4044962 1 10 1 2.0225348e-05 -3.0546509e-05 -7.1692252e-05 110 -1 1898.2254 
6.4907911 9.4039198 13.994021 20.086377 1.1706984 -1.1549779 0.5 -40.916035 1053.3304 13.338537 -0.56195049 1.3374716 -0.38403677 1 10 1 -1.648493e-05 -7.4374874e-06 1.8073463e-06 94 -1 1895.2934 
15.855572 6.8053891 32.087077 37.352331 -0.38678594 0.28282341 0.5 -47.051007 923.01133 -53.988392 1.2531847 0.30684194 0.49141629 1 10 1 -8.1869036e-05 3.5235872e-05 2.8851943e-05 78 -1 1562.4049 
7.5878822 6.6789719 6.185463 8.3165186 -0.16539519 -0.60524223 0.5 60.336685 1035.6352 4.2654819 1.3723228 6.889039 -1.9316493 1 10 1 5.3890648e-05 -0.00012328949 -2.0602919e-05 71 -1 1895.2769 
10.964564 5.2155029 5.7468177 8.5147762 -0.83953504 0.64841762 0.5 31.245086 1078.271 -18.882263 1.3528081 -2.6938155 1.918954 1 10 1 0.00011607452 2.8874001e-05 4.6897009e-05 130 -1 1899.8485 
14.870133 6.5265161 31.750005 37.61958 -0.076771031 -0.14499428 0.5 18.231179 569.39467 -4.3039648 0.73868042 0.59546114 0.13935656 1 10 1 1.2673146e-05 -1.1815329e-05 -1.5565941e-05 173 -1 1899.1781 
6.6715513 2.4832772 2.6225042 4.1077929 -0.052430781 0.41101586 0.5 -36.699843 1049.4133 22.660742 -1.8601919 4.4380403 -0.088905007 1 10 1 -8.6008239e-06 9.8225007e-06 2.9282263e-05 109 -1 1896.6275 
3.238425 9.0055794 2.9327702 4.8247724 0.50275449 0.93553008 0.5 4.3931501 682.89782 12.638336 -2.000518 1.2820202 7.5792694 1 10 1 -3.7574956e-05 8.7960199e-05 -0.00013121057 170 -1 1899.8727 
17.999602 1.7658389 28.243384 34.058726 0.2177416 0.057709145 0.5 -89.56637 900.70932 1.0888844 -0.86066623 0.99571861 -1.6008146 1 10 1 -8.9851653e-06 -2.1868644e-05 -1.151967e-05 125 -1 1893.4028 
19.264809 1.2225557 19.563217 26.328256 -0.38646549 0.09515979 0.5 -18.574426 859.81618 18.860732 2.8059646 1.2994571 -2.6832032 1 10 1 -7.3023255e-05 3.6343201e-05 0.00011130221 155 -1 1855.1238 
18.047898 0.82922885 7.5534756 11.06365 0.70980806 -0.57412473 0.5 -28.700864 1022.7125 43.918129 2.3312942 -0.38450866 -3.8150627 1 10 1 -0.00020545251 0.00018041226 3.2068529e-05 106 -1 1898.0315 
12.431541 1.014984 8.4087018 10.96688 0.098391886 0.21474694 0.5 47.344013 1185.6917 43.57445 -0.71583222 -0.041122052 -0.85522717 1 10 1 3.7222034e-05 -4.347038e-05 -5.1565054e-05 81 -1 1895.4976 
14.288117 8.1169657 -0.2780577 -0.14363021 -0.066394361 -0.046901433 0.5 13.553653 1082.3967 -40.080189 -0.18922522 -0.049403653 0.057193497 1 10 1 2.1418948e-06 4.1279903e-06 -2.3449139e-06 51 -1 1899.7782 
18.282088 4.1577462 10.554952 14.737586 0.77544549 0.15554728 0.5 87.958469 1049.1357 -55.892186 1.8222636 1.923911 -1.6297966 1 10 1 2.7807911e-05 0.00015636716 0.00011210322 153 -1 1897.6395 
15.33577 6.7237017 1.5989964 2.1234733 1.2028123 0.72502719 0.5 12.800928 1046.5916 14.88914 1.612791 -1.1468564 0.31071776 1 10 1 -4.8494193e-05 7.8087093e-05 -7.8625934e-05 140 -1 1899.0561 
0.090304912 9.7636734 14.746836 20.007302 -0.10186549 -0.72342026 0.5 13.884063 968.79749 -0.5910916 0.35594809 -1.6245507 -0.24746743 1 10 1 -2.8599941e-06 5.1024367e-06 3.5323458e-05 123 -1 1873.8615 
5.5300982 7.4281256 13.098437 19.577855 0.18802072 0.38032111 0.5 -69.78879 1009.2557 -26.113528 1.0870733 -0.1684519 -2.3791307 1 10 1 -5.4216268e-05 1.1848243e-05 2.345045e-05 186 -1 1882.2454 
13.1902 1.8470375 5.9764075 6.1711849 -0.58012482 -0.59530442 0.5 -13.321139 980.65757 -15.514912 0.9177858 1.555969 -0.24683945 1 10 1 7.1315793e-05 -1.4250833e-05 -0.00013351981 158 -1 1895.8797 
9.8624234 8.4031956 13.185431 18.653028 0.32988026 -1.0200825 0.5 28.65393 1011.5607 -56.622724 0.46692672 3.5572863 -1.1073855 1 10 1 2.2859195e-05 3.362923e-05 2.179441e-05 94 -1 1880.4602 
14.632103 5.9409218 2.346604 3.089051 0.80485181 -1.203977 0.5 -69.209642 660.82968 12.651989 0.92734235 2.6889496 1.7059942 1 10 1 -7.9945951e-06 4.8250185e-05 3.8998683e-05 67 -1 1899.8387 
11.937915 2.2115511 17.734532 23.655313 -0.32613766 0.99849244 0.5 -14.439984 887.4342 5.1389747 -1.4959703 0.61945276 -3.1060247 1 10 1 -2.3735935e-05 1.7443607e-05 -3.1459556e-06 180 -1 1887.6027 
15.663586 3.5768875 21.329289 27.754855 0.30958291 0.066149526 0.5 11.807857 688.17073 -0.0354493 -0.08154323 0.91270522 -1.5640959 1 10 1 6.4325487e-06 -9.7719244e-06 -7.7583381e-06 77 -1 1891.7731 
17.942372 6.4043684 14.36152 19.126909 0.46185872 -0.20862157 0.5 -39.774088 1147.8277 18.233769 -0.8550653 3.7648112 3.4211127 1 10 1 -3.3829579e-05 -2.4566436e-05 -2.9756876e-06 126 -1 1874.2427 
18.302102 7.0063977 15.825366 21.288756 0.74529397 -0.0017593651 0.5 -27.582369 1138.3491 34.993752 -2.1536033 0.85970356 1.0941542 1 10 1 -2.458462e-05 -6.8693295e-05 -5.9553849e-05 115 -1 1893.3962 
1.4029382 0.16633585 26.021906 32.151016 0.082539717 -0.081228788 0.5 -16.166707 860.40929 -8.1427433 0.038315727 1.2321611 -0.25371115 1 10 1 9.6698666e-07 -1.7254166e-05 8.6600894e-06 117 -1 1852.5653 