restart_version 2
name H4A25L2M0.5B0.5
xmin 0 xmax 20 ymin 0 ymax 10 zmin 0 zmax 4.8
dt 0.0001 t 500.0001 tmax 500 save_count 10000
dim 3 gravity 0.42261826 0 -0.90630779
options_fstat 0 options_data 0 options_ene 1 options_restart 1
Species 1
k 200000 disp 25 kt 57142.857 dispt 25 mu 0.5 rho 1.9098593 dim_particle 3
Walls 1
numFiniteWalls 0 normal 0 0 -1 position 1.7
WallsPeriodic 2
normal 1 0 0 pos_left 0 pos_right 20 shift 20 0 0
normal 0 1 0 pos_left 0 pos_right 10 shift 0 10 0
Particles 869
11.954377 7.076423 -0.91798072 0 0 0 1 0 0 0 0 0 0 0 0 0 
19.871598 5.7599088 -1.3403228 0 0 0 1 0 0 0 0 0 0 0 0 0 
2.5447546 5.1377911 -0.9429057 0 0 0 1 0 0 0 0 0 0 0 0 0 
18.472158 1.990653 -1.8557704 0 0 0 1 0 0 0 0 0 0 0 0 0 
7.8637425 4.6613426 -0.23567148 0 0 0 1 0 0 0 0 0 0 0 0 0 
16.029578 6.2105024 -1.889176 0 0 0 1 0 0 0 0 0 0 0 0 0 
2.8278414 3.3670015 -1.8337663 0 0 0 1 0 0 0 0 0 0 0 0 0 
15.222215 4.1964551 -1.8960457 0 0 0 1 0 0 0 0 0 0 0 0 0 
13.441115 9.712285 -2.3037698 0 0 0 1 0 0 0 0 0 0 0 0 0 
4.2381173 3.4583034 -0.42442259 0 0 0 1 0 0 0 0 0 0 0 0 0 
7.9242687 0.7137899 -0.18919534 0 0 0 1 0 0 0 0 0 0 0 0 0 
12.801526 1.1469878 -0.97922066 0 0 0 1 0 0 0 0 0 0 0 0 0 
15.195968 5.5402796 -0.070088803 0 0 0 1 0 0 0 0 0 0 0 0 0 
17.54924 9.3939273 -0.16961598 0 0 0 1 0 0 0 0 0 0 0 0 0 
14.358723 2.2465285 -1.6015176 0 0 0 1 0 0 0 0 0 0 0 0 0 
5.4124093 1.8729075 -0.69738105 0 0 0 1 0 0 0 0 0 0 0 0 0 
1.4871679 0.011930633 -2.0998224 0 0 0 1 0 0 0 0 0 0 0 0 0 
15.700898 7.4716954 -0.33224031 0 0 0 1 0 0 0 0 0 0 0 0 0 
5.3755588 8.2137634 -0.18360397 0 0 0 1 0 0 0 0 0 0 0 0 0 
17.08078 5.1268769 -0.58552028 0 0 0 1 0 0 0 0 0 0 0 0 0 
10.102613 9.7152214 -0.38338542 0 0 0 1 0 0 0 0 0 0 0 0 0 
10.818058 0.48801839 -2.1002927 0 0 0 1 0 0 0 0 0 0 0 0 0 
4.5209728 9.8941942 -0.89376185 0 0 0 1 0 0 0 0 0 0 0 0 0 
5.8497737 3.6017509 -1.697708 0 0 0 1 0 0 0 0 0 0 0 0 0 
9.8027012 4.1924989 -0.73593239 0 0 0 1 0 0 0 0 0 0 0 0 0 
4.2801025 4.8242261 -1.8813228 0 0 0 1 0 0 0 0 0 0 0 0 0 
19.544293 0.22845895 -1.3249923 0 0 0 1 0 0 0 0 0 0 0 0 0 
17.811998 1.3747265 -0.074825972 0 0 0 1 0 0 0 0 0 0 0 0 0 
18.35966 8.7333942 -2.1632399 0 0 0 1 0 0 0 0 0 0 0 0 0 
6.7859876 1.1339629 -1.9381053 0 0 0 1 0 0 0 0 0 0 0 0 0 
1.7510981 7.0548818 -0.96517429 0 0 0 1 0 0 0 0 0 0 0 0 0 
13.601375 5.1417434 -1.2195976 0 0 0 1 0 0 0 0 0 0 0 0 0 
8.6856587 5.3855803 -1.9094041 0 0 0 1 0 0 0 0 0 0 0 0 0 
7.2868001 8.8027983 -0.16739536 0 0 0 1 0 0 0 0 0 0 0 0 0 
10.454821 8.5413116 -1.9767664 0 0 0 1 0 0 0 0 0 0 0 0 0 
9.228957 1.5370971 -1.4649942 0 0 0 1 0 0 0 0 0 0 0 0 0 
19.584335 2.3065342 -0.23031227 0 0 0 1 0 0 0 0 0 0 0 0 0 
14.489462 3.6728038 -0.11412772 0 0 0 1 0 0 0 0 0 0 0 0 0 
11.980656 9.3236398 -0.9701236 0 0 0 1 0 0 0 0 0 0 0 0 0 
14.224451 6.9925082 -1.5837208 0 0 0 1 0 0 0 0 0 0 0 0 0 
12.751892 3.3445281 -1.1651302 0 0 0 1 0 0 0 0 0 0 0 0 0 
1.5431128 2.5162576 -0.56270292 0 0 0 1 0 0 0 0 0 0 0 0 0 
2.6103309 0.27377262 -0.45193844 0 0 0 1 0 0 0 0 0 0 0 0 0 
17.149698 0.28948062 -1.8943279 0 0 0 1 0 0 0 0 0 0 0 0 0 
17.742237 7.0167673 -1.1585987 0 0 0 1 0 0 0 0 0 0 0 0 0 
9.0667513 8.0247798 -0.63157683 0 0 0 1 0 0 0 0 0 0 0 0 0 
18.146345 5.3561954 -2.252462 0 0 0 1 0 0 0 0 0 0 0 0 0 
0.10368331 8.1422004 -1.3216926 0 0 0 1 0 0 0 0 0 0 0 0 0 
5.4578662 7.1561574 -1.8774532 0 0 0 1 0 0 0 0 0 0 0 0 0 
16.291374 1.9651331 -1.2233718 0 0 0 1 0 0 0 0 0 0 0 0 0 
4.9180838 5.9798257 -0.3461069 0 0 0 1 0 0 0 0 0 0 0 0 0 
6.1693284 9.2387656 -1.8045762 0 0 0 1 0 0 0 0 0 0 0 0 0 
7.4093832 7.2492197 -1.4321058 0 0 0 1 0 0 0 0 0 0 0 0 0 
10.097317 6.3283928 -0.85739043 0 0 0 1 0 0 0 0 0 0 0 0 0 
18.93399 4.0430612 -0.9731769 0 0 0 1 0 0 0 0 0 0 0 0 0 
6.4801403 5.4826898 -1.4896353 0 0 0 1 0 0 0 0 0 0 0 0 0 
13.848976 8.7023449 -0.63907604 0 0 0 1 0 0 0 0 0 0 0 0 0 
7.6902616 2.8200142 -1.0152707 0 0 0 1 0 0 0 0 0 0 0 0 0 
15.651755 9.5387694 -0.80581117 0 0 0 1 0 0 0 0 0 0 0 0 0 
8.5752289 9.6462852 -1.7465425 0 0 0 1 0 0 0 0 0 0 0 0 0 
3.6435492 1.5586071 -1.5853673 0 0 0 1 0 0 0 0 0 0 0 0 0 
11.620326 5.0401474 -0.94850832 0 0 0 1 0 0 0 0 0 0 0 0 0 
16.408581 8.1893662 -2.0700592 0 0 0 1 0 0 0 0 0 0 0 0 0 
17.215194 3.605277 -1.8897235 0 0 0 1 0 0 0 0 0 0 0 0 0 
3.5217429 6.6706209 -1.8050826 0 0 0 1 0 0 0 0 0 0 0 0 0 
11.077015 2.2756692 -1.2520605 0 0 0 1 0 0 0 0 0 0 0 0 0 
0.91358985 4.0706827 -1.6682482 0 0 0 1 0 0 0 0 0 0 0 0 0 
2.8916823 8.5682677 -1.6268832 0 0 0 1 0 0 0 0 0 0 0 0 0 
0.58567623 1.807037 -2.1660943 0 0 0 1 0 0 0 0 0 0 0 0 0 
6.8040111 9.9975991 3.6022988 0.037362954 -0.060679449 0.0289479 0.5 -8.2755073 25.583221 -0.21296871 0.084900317 0.095919607 0.043166193 1 10 1 -4.7146027e-07 1.8719574e-07 3.8310071e-07 13 -1 115.1669 
5.1563509 9.8560285 0.46446798 0.0015154073 -0.0011592775 -0.0019388207 0.5 -0.63975017 2.295013 -1.6703805 0.0048047839 -0.0022703116 0.0058137126 1 10 1 -9.7572995e-06 -2.6520259e-07 4.5569998e-06 22 -1 500.0001 
9.3594691 8.1082211 0.83720539 0.0042413671 -0.0030695291 0.00053523386 0.5 0.36359985 3.4254547 -0.58542986 0.0095454672 -0.00040054286 -0.0016434656 1 10 1 -1.8381874e-05 -7.3736739e-07 3.7052656e-06 45 -1 500.0001 
14.08808 6.6138049 0.8407656 -0.0017697526 -0.0042119623 0.0019368789 0.5 1.4107545 10.407135 3.1046126 -0.0057542587 0.0040315109 0.0062551892 1 10 1 3.8554312e-07 1.654739e-07 2.5290428e-08 71 -1 224.4264 
0.87311246 6.0645541 -0.25921114 -0.000286342 -9.1374158e-05 0.0012289978 0.5 -0.69705596 0.8621904 -0.22520382 -0.00058325126 0.006251332 0.0017330835 1 10 1 2.1003074e-06 -7.3383991e-07 1.5826574e-06 30 -1 500.0001 
9.7086793 3.4922848 2.474085 0.02137124 0.017331939 0.011860418 0.5 3.7002712 23.320196 2.5020241 0.040944333 -0.033253171 -0.067091491 1 10 1 3.2065499e-06 -6.6568703e-08 -8.3244907e-07 4 -1 71.4336 
17.963652 2.9141587 -0.78874111 -5.2601169e-05 1.5906235e-05 0.00025818573 0.5 -0.031635229 1.4325824 1.2405038 -0.0010103605 0.0019053885 -0.00092703446 1 10 3 -4.7805905e-07 -1.6543695e-06 1.204019e-06 3 -1 500.0001 -1.4735527e-06 1.3574939e-06 5.5647694e-07 54 -1 500.0001 1.6029334e-06 -1.0390669e-06 -1.7419404e-06 63 -1 500.0001 
18.687336 8.1335375 -0.82797223 -1.6196002e-05 -0.001068089 -0.0015152162 0.5 0.18161963 -0.36588085 0.42606827 -0.003861583 -0.0017249783 0.00046318512 1 10 2 -1.1879739e-05 4.7814689e-06 1.7807807e-05 44 -1 500.0001 1.7489842e-06 2.4237291e-06 5.0598791e-06 47 -1 500.0001 
12.035033 1.29723 1.5923672 0.0088811413 0.00078047434 -0.0009890504 0.5 3.899194 11.156456 1.528735 -0.0047813499 0.003805843 -0.017290293 1 10 1 2.7993413e-06 3.0719286e-06 -1.7026241e-06 10 -1 391.5514 
12.613922 7.9041877 0.94787231 -0.002899393 -0.00075448842 -0.0037171851 0.5 -2.2806149 12.631674 -2.7099917 0.0082196787 0.0077888429 -0.010326337 1 10 1 -1.6304198e-06 -4.5331817e-08 4.828966e-07 69 -1 368.5688 
2.3677415 3.422289 0.46312893 -0.004679704 -0.0043309127 -0.0036879359 0.5 2.1863765 4.9778101 0.66432365 0.0029219693 -0.0091625698 0.0016254656 1 10 1 -9.5053629e-07 1.1073149e-07 5.3009673e-07 41 -1 458.0804 
1.3677821 4.8528068 0.240009 -9.6999995e-08 0.00094573075 6.562779e-05 0.5 -2.1877158 6.8551914 -2.4933931 0.006296124 0.0081687661 0.0050007793 1 10 1 -5.8148247e-08 9.0604057e-08 1.3349352e-07 73 -1 399.1759 
19.451637 7.0572795 1.8565615 0.001356908 -0.0062223109 0.0023001491 0.5 -3.490315 16.857439 -4.4082355 0.017864597 0.0066865984 -0.00046868664 1 10 1 -1.2076734e-07 2.6261157e-07 -1.8872432e-07 72 -1 320.4399 
13.92983 6.3865337 1.803389 0.00028762355 -0.0013091455 0.0056722568 0.5 -5.6642335 7.0740974 -1.0060588 0.0043231814 0.025317516 -0.0045870052 1 10 1 1.2855642e-06 -5.8272386e-07 7.6776306e-08 72 -1 499.7342 
13.137546 4.3197957 -0.053765754 -0.00044697006 -0.00093202966 -0.0021939 0.5 2.5709683 2.6712521 -2.2825835 0.0034366473 -0.0013621207 -0.00012464006 1 10 2 -2.6305192e-07 -6.9171198e-07 1.5226151e-06 37 -1 500.0001 -1.6887307e-05 -6.2948082e-06 -1.1156686e-05 31 -1 500.0001 
5.5168093 5.2743381 1.8460999 0.0034292825 0.0076250867 -0.0037345871 0.5 -1.5697925 11.687911 1.0166916 0.0043151507 -0.015543181 -0.0029025016 1 10 1 5.8276542e-07 7.6390857e-07 -1.0481182e-06 79 -1 379.5786 
16.99118 4.7791051 0.87225437 0.0014237083 -0.0022443256 0.00092788648 0.5 -3.8774127 9.3964193 5.7711495 -0.015212997 0.0051685243 0.00097275182 1 10 1 4.1628008e-07 1.9130714e-07 7.0307231e-08 19 -1 498.7109 
6.4877575 1.0987434 0.0056015562 -0.00043023044 -0.00023049096 8.3763964e-05 0.5 3.0086455 -1.754152 1.1444296 0.0030268979 0.0023000178 0.0018111168 1 10 2 -6.9765029e-06 -1.1368758e-05 -2.8980862e-05 10 -1 500.0001 1.9049953e-05 1.2993761e-06 -2.7709652e-05 15 -1 500.0001 
1.6443774 8.1821527 2.8593003 0.023572172 -0.0037796547 0.02814748 0.5 -5.8035621 25.499577 3.2967826 0.046313733 -0.040219368 0.0092391338 1 10 1 2.2620931e-07 -9.6843186e-08 3.9794698e-08 72 -1 177.1699 
15.76325 3.854162 0.94605404 0.00044468949 -0.0019525406 -0.0011419849 0.5 2.1567045 11.38944 -0.89530162 0.006481922 0.013486387 0.0019935131 1 10 1 -4.8291573e-07 8.2988086e-07 5.2827241e-07 37 -1 477.3145 
16.056419 6.5302313 0.7800573 -0.00015081737 -0.0011330309 -0.0022432741 0.5 1.9441099 7.5385945 -0.50173031 0.00037359544 -0.0037773906 -0.0072912798 1 10 1 2.9039748e-06 -1.2821092e-05 -1.1780139e-05 17 -1 500.0001 
4.1122504 1.1480652 1.0121242 0.0015378602 0.0073574176 -0.001906118 0.5 -6.7395506 10.217058 -1.8883364 0.00075332417 -0.0053672911 -0.007278605 1 10 1 2.1426451e-06 1.2490474e-06 -8.3442185e-07 42 -1 452.7202 
0.57372563 1.1854087 -0.8010277 0.00053021506 -0.00087986176 -0.00048829195 0.5 1.063323 2.0522016 0.86696008 0.0025724123 0.0011515604 -2.3435959e-06 1 10 1 1.1193682e-06 -1.3715539e-06 -6.1478287e-07 68 -1 500.0001 
17.472488 2.5449269 1.8279121 0.012303902 -0.0043026369 0.004420339 0.5 -8.7650406 20.727732 -3.2359785 -0.019613065 -0.0073894711 0.012491595 1 10 1 -9.2221965e-08 -4.88578e-07 4.983061e-07 77 -1 349.8749 
5.4797847 9.4363648 2.7962388 0.030240787 -0.0027990985 -0.0054494033 0.5 -2.4411905 22.992431 2.2383843 -0.050133581 0.023263555 0.0098730167 1 10 1 9.7932278e-07 -4.0794282e-07 2.3030278e-07 69 -1 466.9129 
2.9892437 3.9296238 1.1303408 0.005541082 -0.0014205445 -0.0036189739 0.5 -3.3858321 0.1291892 1.7885492 0.012744997 0.048131474 -0.020090756 1 10 1 -3.459718e-07 4.4606696e-07 -3.9516171e-08 79 -1 489.1755 
11.639128 1.465007 -0.08618572 -0.0014112101 0.0010392321 -0.00067329114 0.5 -0.099578209 7.0471472 0.76627193 -0.01809242 0.0041698948 0.010740036 1 10 1 1.0016571e-05 -3.0412512e-07 1.3146146e-05 11 -1 500.0001 
18.009216 6.6892884 0.64842445 -0.00038518424 3.7477273e-05 -0.0063535644 0.5 1.6064415 8.6246625 -0.92631615 0.020817137 -0.014934024 -0.0058712373 1 10 1 1.0089216e-06 -8.5721433e-07 2.2087668e-07 81 -1 447.9228 
12.614045 1.29256 0.50187659 0.0012644757 -0.0012893389 0.00089172783 0.5 0.11584259 7.3209107 -1.6091798 0.00033746305 0.0021950424 0.0048172508 1 10 1 -9.7842142e-07 -2.4514017e-06 1.1708878e-07 11 -1 500.0001 
18.741181 3.8419047 0.50071114 -3.8897083e-05 -1.3470473e-05 -0.0032063149 0.5 1.1273152 7.5859666 -0.85896663 0.0038069642 0.0034900698 -0.0017654105 1 10 1 -8.0560602e-06 4.703432e-06 -4.1194081e-07 54 -1 500.0001 
11.376504 0.74879471 -0.73282157 -0.00018775026 1.5401995e-05 -0.00074192764 0.5 -0.49843435 -0.6844608 -0.084363106 0.0011955097 0.0012170169 0.00010761192 1 10 2 1.3824741e-06 4.7124056e-05 -9.5511161e-06 21 -1 500.0001 -2.1006726e-06 1.0929829e-05 5.5141325e-06 11 -1 500.0001 
4.9033751 1.6737497 0.69947355 0.0047770883 0.0043466592 0.0028051071 0.5 -1.7169312 11.747407 -1.5284346 0.014776473 0.0062582284 -0.010213125 1 10 2 -1.109433e-06 1.0056375e-05 1.4101301e-05 90 -1 500.0001 2.5330407e-06 9.5798078e-06 2.2889267e-06 15 -1 500.0001 
1.7939039 3.9803425 -0.35453162 -0.0018279593 0.00052283507 -0.0017957258 0.5 0.039723378 0.99180015 -1.3669505 -0.0035165174 -0.018570107 -0.0024690108 1 10 2 -1.1446333e-06 -7.3803122e-06 -1.5979257e-05 2 -1 500.0001 8.3791066e-07 -6.4375062e-07 3.5180886e-06 41 -1 500.0001 
11.023633 4.8345716 0.92022743 0.0022570003 0.0030595743 -0.0016333374 0.5 -1.817058 5.5794079 -0.51658495 -0.0011840702 -0.0057424111 -0.0063714581 1 10 1 2.436779e-07 -1.7023326e-07 -6.4710695e-08 24 -1 420.5123 
6.7712041 4.2685549 0.71406708 0.0011946073 0.00086731888 -0.0029220979 0.5 1.306397 5.7353959 1.4592729 -0.0065555195 0.0012580581 -0.002705751 1 10 1 6.555224e-06 5.3435125e-06 9.7507885e-06 4 -1 500.0001 
14.40513 0.12887525 -0.21629723 -0.00027667456 -0.00031408492 -0.00045108474 0.5 -1.0279264 0.88661275 1.6688167 0.003819314 -0.0041647669 0.00046461636 1 10 1 -9.8647204e-07 -1.6666491e-05 1.4597166e-05 58 -1 500.0001 
5.6508978 1.0270364 0.54815289 -0.0010641536 4.8018659e-05 -4.7943627e-05 0.5 -3.7040244 10.409788 -5.6501073 -0.0017504806 -0.0066808872 -0.0046841899 1 10 2 -7.1090424e-06 -4.3399732e-06 -1.1538959e-05 86 -1 500.0001 -2.8156337e-06 -7.2212756e-06 1.695304e-05 100 -1 500.0001 
1.6929708 1.9626579 1.0040211 -0.00016874369 -0.00011027313 0.0028797108 0.5 -1.5913837 11.463841 -2.6226501 0.027395342 -0.013733021 -0.029308581 1 10 1 -1.716344e-07 -1.673483e-07 -4.560112e-08 41 -1 470.5858 
0.20353616 6.8206494 2.6689021 0.027472569 0.0076552972 0.00058586895 0.5 4.5837332 38.79406 11.027718 0.017227566 -0.0039885905 -0.084168306 1 10 1 -2.6988695e-07 -5.2367515e-07 -2.224922e-08 81 -1 489.6984 
9.0079539 9.3336657 2.4694966 0.036975765 0.0052210297 0.019871709 0.5 -4.8003896 18.006178 -0.93487984 0.016046116 0.18130557 -0.14191118 1 10 1 8.9918944e-06 8.1370322e-06 2.4882631e-06 93 -1 440.9453 
18.934993 5.5563343 2.1729254 0.036139954 -0.02643636 -0.030447269 0.5 5.6434321 20.627596 -2.6404621 0.047378117 0.13571783 -0.064925528 1 10 1 -1.1163243e-06 8.4110664e-07 4.252077e-08 85 -1 460.6617 
6.6601188 7.4401622 -0.14603718 -0.001025015 -2.5273156e-05 0.00079562777 0.5 -0.11338263 0.044099576 -1.0728895 0.0011184503 -0.00053036868 -0.0020904392 1 10 2 6.1509378e-06 -3.1205367e-06 -1.8610131e-05 33 -1 500.0001 7.5338239e-06 1.267799e-05 3.4620548e-06 18 -1 500.0001 
15.738859 9.5073612 3.1484607 0.03660288 0.0045260643 0.0045831221 0.5 -3.6709553 37.459012 2.4375583 0.053910205 0.11400799 0.10671076 1 10 1 4.8114292e-07 -2.317807e-07 2.4079552e-07 108 -1 109.3057 
2.1256914 0.014121569 1.1262831 0.016495992 0.0013471026 0.0078856773 0.5 2.0659384 7.576552 0.80800858 0.0093243035 0.01541192 -0.028257881 1 10 1 -1.2723047e-06 1.3130924e-06 5.5991158e-07 93 -1 447.0773 
11.423646 7.681264 2.7943854 0.076918239 0.05506927 -0.018524591 0.5 -1.9737683 9.2091586 3.8274436 -0.20981495 0.19247661 -0.14739148 1 10 1 -1.2557322e-07 3.0469689e-07 -1.5824967e-07 96 -1 317.8359 
8.7523154 0.79248004 1.2193602 0.0090900609 0.0021275841 -0.0011348484 0.5 0.96350678 6.3103323 -3.1734089 0.012958485 0.019595197 0.010551921 1 10 1 2.869453e-07 7.6357545e-08 -7.9799012e-08 10 -1 479.3363 
17.45873 5.6524505 1.0086427 -0.00078278894 -0.0019252043 -0.004566386 0.5 4.284903 7.1197694 4.4281705 -0.0053197338 0.0047023732 0.0050474357 1 10 1 -7.7604193e-06 2.7395565e-06 9.0609355e-06 85 -1 500.0001 
8.9092796 2.0798137 -0.10369371 -0.00070480849 -0.0008192118 -0.00016930166 0.5 2.2552464 1.0206395 -4.3373174 -0.008120791 0.015046747 0.0010450696 1 10 1 2.5311525e-08 6.5565552e-06 -2.6079914e-06 35 -1 500.0001 
9.1445336 2.3148805 1.3767578 0.026645345 -0.0034354971 0.0066357517 0.5 0.49543012 23.469686 6.6343171 0.029008333 0.056171186 0.032228517 1 10 1 1.0315116e-06 1.5838497e-07 3.7103365e-08 105 -1 314.3533 
11.209178 5.6789369 0.34486021 0.0014413536 0.00059404503 -0.0027969672 0.5 -1.7716695 8.0106419 4.0786724 -0.0060130818 0.0036805656 -0.00091374002 1 10 1 3.2508346e-05 8.2521011e-06 6.2583892e-06 61 -1 500.0001 
19.646292 6.3848865 0.0045058048 0.00064140133 -0.0012325542 -0.00020630722 0.5 -2.8908015 5.428166 -2.2880029 0.0069567954 -7.5114845e-05 -0.0054463737 1 10 1 -9.7944856e-06 -2.6999463e-06 -3.8618436e-07 1 -1 500.0001 
19.438023 6.6359267 0.94977499 0.001386368 -0.0012527413 0.00055614776 0.5 0.64938858 12.028769 1.9515183 -0.0046364198 0.00081695324 0.0057889269 1 10 2 1.7544015e-05 1.8532322e-05 -1.0562869e-06 119 -1 500.0001 -3.6300473e-06 1.0095423e-05 -4.6364981e-06 81 -1 500.0001 
4.4766145 6.3124822 2.3268482 0.0077745863 0.0030649044 0.010829381 0.5 9.5211802 32.55484 3.8427931 -0.025351455 -0.0030241063 0.019678795 1 10 1 1.697588e-06 -1.2302419e-06 -1.1958719e-06 81 -1 366.8208 
1.9157928 9.61741 2.0198957 0.0031285579 -0.0059667823 0.00050490923 0.5 -1.291798 18.405075 1.820195 0.0077771254 -0.02496929 -0.011568166 1 10 1 4.446097e-06 8.4721054e-07 1.4204451e-06 112 -1 500.0001 
7.0556559 1.9217899 0.0046756074 -0.00076312331 -0.00086047905 -0.002038875 0.5 1.0389626 -0.5686561 1.7696311 -0.00087957861 0.0046919269 -0.0040725581 1 10 2 4.0419522e-05 -2.9079189e-05 -4.6000004e-07 57 -1 500.0001 2.2234112e-05 -1.5358182e-05 -1.4884683e-05 86 -1 500.0001 
15.248056 5.7593614 2.9458138 0.01348849 0.0030781182 0.0039379968 0.5 -2.1086991 26.420186 0.02261102 0.042695913 0.013539951 0.0055934318 1 10 1 -7.6214376e-07 -3.291971e-07 3.5848688e-07 117 -1 50.9516 
1.9697144 5.4084815 3.3061939 0.020169279 0.05468221 -0.041579372 0.5 -6.6159594 29.785428 -6.2977446 -0.14974696 0.058583508 0.029937182 1 10 1 2.441065e-06 -4.6089644e-07 -1.6325745e-06 107 -1 464.2598 
8.214963 9.247079 0.92398281 0.0087429622 0.0012440075 -0.0095627524 0.5 3.0883791 16.017163 0.45628947 0.019141293 0.013137846 0.02368146 1 10 1 9.5453591e-06 1.3732509e-06 -8.6768803e-06 33 -1 500.0001 
13.56085 1.6979295 0.61173993 0.00051506166 0.0023752632 -0.00058592095 0.5 -2.1128301 10.916908 -0.20179181 -0.0082883527 -0.011269655 0.0020970894 1 10 1 2.140386e-07 -1.2152586e-07 4.766999e-07 93 -1 220.4836 
0.31114885 7.0997339 1.3472516 0.0022327408 0.00042721967 0.00040091862 0.5 -1.6851005 8.5155415 -3.828069 0.0010114173 -0.0043638584 0.0027764006 1 10 1 -2.116387e-06 2.9500407e-05 -1.112559e-06 81 -1 500.0001 
0.5805134 4.9476873 0.84941939 -0.0032029433 0.0024584684 0.0018207251 0.5 -1.1763713 17.083039 -1.477029 -0.0046504082 -0.00046731063 0.0024626069 1 10 1 8.1460988e-08 8.5134068e-09 1.0391053e-07 80 -1 499.9879 
2.9076923 5.6970058 3.1139491 0.040351625 0.026911163 0.0077332739 0.5 6.7630317 27.47073 -3.0019757 0.015510919 -0.16642311 -0.043169836 1 10 1 1.600038e-07 -2.0744272e-07 4.6905483e-07 125 -1 499.9984 
3.8728041 4.9062132 -0.28570537 0.00054356327 -0.00069643272 0.0027712151 0.5 0.97907603 -2.132361 0.49936016 -0.00091638593 0.0052142388 -0.00097075164 1 10 3 -0.00016624759 -5.4121866e-05 0.00012710129 9 -1 500.0001 -6.154264e-05 7.0591167e-05 0.00018970178 50 -1 500.0001 -7.2355626e-05 -7.8018862e-05 0.00011872241 2 -1 500.0001 
0.98478168 5.2396987 3.3440244 0.028541291 0.011611064 -0.0037690527 0.5 2.3676352 46.213965 3.3139318 -0.055904399 -0.00038812605 0.044119428 1 10 1 6.8037109e-08 -5.3101027e-07 -5.9765948e-07 125 -1 499.9949 
0.024871034 8.9918745 0.9708981 0.0031683376 0.0023501144 -0.00083067636 0.5 -6.6420187 7.8950544 3.7643245 -0.001014827 0.0027705679 -0.0050284207 1 10 1 -3.2679486e-07 -1.9282084e-07 5.7226552e-07 112 -1 441.2888 
3.9792275 0.090245885 0.49117887 -0.003070843 0.012593774 -0.0028376854 0.5 -1.7605864 3.1898847 4.0449607 -0.026152297 -0.0069440453 -0.0028368594 1 10 1 3.3361734e-07 6.7734214e-07 3.4616311e-08 22 -1 500.0001 
12.469995 0.19246568 0.15674073 0.0020180292 0.014352437 -0.0042250427 0.5 1.9399569 3.966781 3.4857581 -0.14435748 0.010692066 0.020385681 1 10 1 1.3487133e-06 -1.1753809e-06 3.0475765e-07 38 -1 498.338 
13.846329 4.9751849 0.26021194 0.0017647803 0.00061700674 -0.00049959076 0.5 -2.2422618 2.3657996 -0.70071498 -0.00022753351 -0.00018450722 -0.0016617704 1 10 2 -2.4823465e-06 5.7435077e-06 -3.1682073e-07 12 -1 500.0001 4.4021226e-06 9.9903393e-07 4.0872741e-06 37 -1 500.0001 
18.697842 8.4204585 0.13310059 -0.00016115229 0.0013757216 6.4039384e-05 0.5 -1.8050936 9.3261724 -3.1766068 -0.0047626085 -0.0048982386 -0.00089357402 1 10 1 5.5777027e-07 3.1423372e-06 -9.5980798e-07 76 -1 486.5936 
2.6918492 5.6560546 2.1383773 0.0047179712 -0.0033225218 0.014987072 0.5 3.7794981 13.421873 -1.0329664 0.043800184 0.049146381 -0.0144285 1 10 1 -3.6725213e-07 -2.6454073e-07 9.2331829e-08 130 -1 499.9989 
10.547881 5.8638327 2.0480037 0.0047059485 0.0087436192 -0.0091102988 0.5 -2.6737511 20.563429 -5.2958872 0.070670143 0.055257298 0.028286807 1 10 1 1.7255796e-06 1.1777268e-07 -5.4431945e-07 129 -1 277.2583 
8.7631306 5.4733145 0.78178898 0.001682204 -0.0056900019 -0.0011704822 0.5 5.2813476 9.10716 2.2547444 0.0028539952 -0.0005261492 -0.0073551537 1 10 1 -6.554843e-07 1.4265507e-08 5.2116623e-07 4 -1 477.3952 
17.903742 3.3612114 1.4436262 -0.0003579387 -0.0008642457 -0.0013122163 0.5 5.1339422 23.190738 -0.70157118 0.0046011791 0.001427629 0.019591915 1 10 1 -2.5509611e-06 -1.1072371e-06 -5.2146896e-06 92 -1 500.0001 
19.521532 0.83381678 0.047238716 0.00034289582 0.0016345975 -0.00020163925 0.5 -0.87167632 1.6383161 1.9368121 -0.0040543949 -0.0032143531 0.00012348092 1 10 2 -1.6974289e-05 -4.185138e-06 -2.6047703e-05 36 -1 500.0001 3.1674269e-06 -9.319389e-07 4.6366146e-07 26 -1 500.0001 
15.216638 0.91903583 -1.2000565 0.00054676041 -0.00034365575 -0.00043236117 0.5 1.7285294 -2.2726095 2.1925994 0.0020749086 -0.00046585928 0.00058664558 1 10 3 1.4132801e-05 -2.471279e-05 0 -1 0 500.0001 1.1358138e-05 -7.5829005e-06 -3.9083639e-05 58 -1 500.0001 6.9133636e-06 -7.2136508e-06 -4.981201e-06 49 -1 500.0001 
4.1627809 9.6666205 1.8106839 0.0067044269 -0.00025581261 -0.0073609612 0.5 11.076599 14.429892 -1.6150979 0.011140789 0.025849585 0.0076417076 1 10 1 -1.5732539e-06 -1.1109037e-08 8.9856948e-07 93 -1 468.8538 
6.2525818 3.0296336 0.6098229 0.00031210173 -0.0022377742 0.0027696237 0.5 -2.9381293 3.1462595 -6.7926066 -0.00055509304 0.010750205 -0.0088438183 1 10 1 -4.2675222e-07 7.3486193e-07 -4.7655659e-07 15 -1 448.6769 
1.5879979 2.9484782 0.87293894 -0.0029708365 -0.0019948499 0.00052100817 0.5 -2.1405884 9.815208 -2.6496287 0.0061531129 0.0046798938 0.05792744 1 10 1 3.2171393e-07 2.2342541e-06 -6.8271258e-07 41 -1 500.0001 
13.57888 9.8027683 1.5045936 0.0074506178 -0.003685997 2.7081264e-05 0.5 2.1517019 12.233136 6.7321488 -0.01222962 0.014486325 0.0053863166 1 10 1 6.4120171e-07 -1.0608878e-07 -2.6348782e-07 135 -1 460.6328 
9.3161646 0.72616982 2.4999405 0.067190546 -0.010368773 0.009194494 0.5 12.537117 18.068783 -4.6729853 0.02916185 0.11515091 -0.019092003 1 10 1 1.7041046e-06 -6.8173179e-07 -3.5193343e-07 108 -1 485.5092 
12.181298 8.2200406 0.025751776 -0.0016648789 0.0018706528 -0.00080037172 0.5 1.799448 7.7993739 -0.11762522 -0.0010508392 0.0021590786 0.0065979113 1 10 2 5.3037168e-06 -4.4490114e-06 -5.998814e-06 38 -1 500.0001 7.8240562e-06 8.7051052e-07 -2.9361865e-06 0 -1 500.0001 
1.8923095 5.7063949 0.28219394 0.0049587709 -0.0019287469 0.0026915059 0.5 0.68905151 0.87428726 2.3417012 0.011476308 6.1532941e-05 -0.0064422609 1 10 1 4.6688948e-06 3.7810982e-05 -1.506267e-05 2 -1 500.0001 
17.146956 6.5363915 1.8958796 0.0043480576 -0.0067964961 0.0039372224 0.5 -6.7796429 20.506828 4.3269971 -0.006657393 0.006765879 -0.0042865721 1 10 1 3.5698078e-08 1.2238499e-06 -1.9989304e-07 89 -1 471.7536 
10.343511 1.189027 -0.52341183 0.00035769758 1.4850932e-05 0.00060801686 0.5 2.1354519 2.0090176 0.40765928 -0.0013118939 -0.0025478164 0.003310382 1 10 3 -2.148788e-05 2.8741545e-05 2.1231543e-05 65 -1 500.0001 -2.8472086e-05 7.5804931e-06 3.0803334e-05 20 -1 500.0001 -4.3781404e-06 9.60823e-06 8.7342474e-06 35 -1 500.0001 
19.532535 4.6884141 0.24249238 -0.0030317098 -0.0028005357 -0.0030923449 0.5 -1.8679343 4.4825884 2.823713 -0.0039724793 0.0047136118 -0.0037785821 1 10 1 -2.1229417e-06 8.3883814e-07 5.9964204e-07 54 -1 497.5355 
1.8301328 3.2695403 1.7885023 0.0018046394 0.0094915669 -0.0063811766 0.5 3.7178897 23.815114 -6.7854666 -0.023222934 0.0290513 -0.0012275256 1 10 1 -4.4356997e-06 4.3387666e-06 -3.4839312e-07 146 -1 500.0001 
13.45274 7.365511 1.026656 0.0054228298 0.014556305 0.013375802 0.5 2.4558734 6.6634415 2.8739448 -0.059075315 -0.0039570126 0.029252766 1 10 1 1.4205304e-06 2.5559404e-06 2.3514841e-06 78 -1 500.0001 
19.289983 2.8728867 2.6034255 0.015070379 0.019132982 0.0029267598 0.5 8.7523637 30.55977 -7.2679135 0.034455671 -0.066401968 -0.071932619 1 10 1 -7.4333439e-06 -4.7878294e-07 1.385867e-06 92 -1 460.7368 
8.0875046 7.6142175 1.678054 0.017998156 -0.012210218 -0.018733061 0.5 4.1245705 16.779994 -1.4136753 -0.049666201 -0.015251645 -0.0076284957 1 10 1 1.1521888e-06 5.1284194e-07 -1.4791453e-08 113 -1 448.4951 
11.90014 8.5889916 1.0944863 0.0015863565 0.0059742437 0.0032796393 0.5 -5.5515274 8.8140537 -1.4673057 -0.0021611847 0.012789707 0.002658795 1 10 1 -6.927407e-06 -3.4238484e-06 -1.7733568e-05 78 -1 500.0001 
0.73108861 9.418695 0.40528293 -0.0019780874 -0.0021109004 0.00056022499 0.5 -1.8822361 6.5409219 2.2651148 -0.010972398 0.004474698 0.0065562032 1 10 1 -2.4357791e-07 1.1570421e-08 -2.9673821e-07 133 -1 490.9382 
8.9439675 3.0710897 -0.23097952 -0.0003807016 0.00060393809 -0.00048199967 0.5 -1.2748045 2.6621451 -0.63606295 -0.0010063884 -0.0035815637 0.001097766 1 10 2 -5.9854609e-06 9.6447052e-06 6.4803206e-06 57 -1 500.0001 -7.3881779e-06 4.7080925e-06 -2.1086699e-06 24 -1 500.0001 
1.304792 7.1726034 1.2615841 0.0018762823 0.002098111 -0.0011349434 0.5 4.4454434 14.26185 -0.23319738 -0.00029030144 0.0074521721 0.0043940129 1 10 1 5.4801662e-07 2.1580943e-06 8.1920503e-06 128 -1 500.0001 
17.066503 5.5917017 2.3884505 0.009616461 -0.0035911239 0.003256978 0.5 -0.018730699 6.7178447 3.4089803 0.01791603 -0.0080134931 -0.04858181 1 10 1 1.3273296e-07 3.8027696e-07 5.9852804e-07 151 -1 496.6111 
3.2425637 4.3559916 0.26202043 -0.0046327464 0.0020931576 -0.0011454942 0.5 0.48333363 6.2934836 -2.7587738 0.012058916 -0.0097640731 -0.01774892 1 10 2 -3.967129e-06 -5.0983046e-06 -9.68631e-06 131 -1 500.0001 -7.9085342e-06 3.9285874e-07 -2.114298e-06 94 -1 500.0001 
0.64143904 8.4229935 0.42664321 0.00032880692 -0.0028435017 0.0022361541 0.5 -2.1279856 8.6651427 2.4571757 0.009545932 -0.0036902603 -0.00089002535 1 10 2 5.3615995e-05 -5.1640948e-06 -1.5694823e-05 159 -1 500.0001 -6.6410128e-07 -3.3653641e-06 2.7653e-06 133 -1 500.0001 
14.716298 0.83025703 1.7772635 0.0046694454 0.0076532906 -0.0031411014 0.5 -2.4795896 9.133163 -1.5812685 0.0041326275 -0.0066762048 0.0020699812 1 10 1 -8.4223732e-08 -8.4479239e-08 1.8990313e-07 147 -1 466.4286 
6.1689598 5.1791632 -0.054030066 0.00015947804 -0.0049162232 0.00049213916 0.5 -6.0173526 -3.3996097 1.9920819 0.0053942046 0.0052800189 0.00096498886 1 10 1 -1.2500242e-05 1.0654227e-06 -2.4842809e-06 55 -1 500.0001 
7.396711 9.8403474 0.91025169 0.015373559 -0.0058078692 0.001932224 0.5 -4.0266553 3.0295164 -2.6181801 0.01097864 0.01475268 -0.023030206 1 10 1 -2.0014576e-07 1.6300967e-05 -1.5674015e-05 33 -1 500.0001 
12.546658 9.8443625 3.2798154 0.052759126 0.031450061 0.039327657 0.5 -4.3075535 14.654587 -3.9762813 -0.042011465 -0.091198367 -0.017785939 1 10 1 -7.035082e-06 2.6333721e-06 -2.3056765e-06 113 -1 461.1623 
17.049295 6.5577663 0.89587845 -0.00028569477 -0.0027217433 -0.0058425801 0.5 1.4091507 7.3546602 -1.137814 -0.001331972 0.0083616617 -0.0033592642 1 10 3 -2.1136022e-05 -1.0484167e-05 -7.428314e-06 115 -1 500.0001 -1.1637458e-06 1.3669258e-06 9.6512366e-06 89 -1 500.0001 4.4486475e-06 -1.1389319e-05 1.1203718e-05 96 -1 500.0001 
18.474959 6.8642885 1.9506023 -0.0014757796 -0.0020173769 -0.00014745253 0.5 -1.2228537 22.129998 1.6676692 0.0064455945 -0.0071205085 -0.011739361 1 10 1 1.7394135e-06 -7.1710169e-06 3.3486114e-06 81 -1 500.0001 
2.2060256 4.4051571 0.55136093 -0.0010692887 -0.0035351827 -0.0050839057 0.5 6.4027929 9.7949128 0.99548458 -0.0030076055 -0.0012615711 -0.012537584 1 10 2 2.3564465e-06 2.9684516e-06 -2.0762669e-06 80 -1 500.0001 2.1619928e-06 5.7621466e-07 -2.4561896e-06 79 -1 500.0001 
16.686796 7.448835 1.7636476 0.0035998092 0.0062497268 -0.0017553001 0.5 -2.1763496 17.161592 -2.3312634 -0.037842604 0.0021698183 -0.016405456 1 10 1 3.412941e-07 1.2216475e-07 -4.6164523e-07 151 -1 495.0121 
13.234015 0.53432888 0.70419479 0.0040301045 -0.00072951579 0.00030606027 0.5 7.5784023 7.9933912 3.2832022 0.0054673592 -0.0029949713 0.0038744519 1 10 1 -6.9416553e-09 4.5748638e-08 1.92712e-07 97 -1 499.9761 
0.51290098 0.69725419 0.069601829 -0.0012079359 -0.0001777803 -0.00083232111 0.5 1.0150012 5.6336135 4.5532129 -0.0045406632 -0.0078299331 0.0054825537 1 10 1 -1.473569e-06 1.1353397e-06 5.3362757e-07 91 -1 500.0001 
0.2029088 0.27955827 1.2973468 0.0031410291 0.0025574006 -0.0062746936 0.5 -0.23469422 8.2704055 0.39496028 0.02380223 -0.018343622 0.035449853 1 10 1 -6.4587804e-08 -1.144462e-07 6.9294261e-08 112 -1 434.0571 
17.053383 8.3244481 1.0485288 -0.00042708393 0.0027580472 -0.0019989883 0.5 -1.3342065 9.8885754 2.922912 -0.0092801624 0.0011482011 -0.0031003487 1 10 1 1.4869547e-07 3.1008797e-07 -1.6116055e-07 17 -1 425.1971 
16.268726 9.6906586 0.55296827 -0.00075843018 0.0010719482 0.00096991572 0.5 0.25350046 5.2055157 -1.2019796 0.022629094 -0.0047283055 -0.015104389 1 10 1 -1.8402773e-05 -3.7789356e-07 -3.2456939e-05 13 -1 500.0001 
6.914651 5.8438081 -0.10014093 0.00081352976 -0.0039055201 -0.0019515968 0.5 0.51163779 -0.68982318 1.8807393 -0.0024253262 -0.0023248908 0.014013243 1 10 2 -1.5787821e-05 2.1138254e-05 4.9372175e-05 166 -1 500.0001 3.4601637e-05 -1.0316577e-06 -1.0552207e-05 55 -1 500.0001 
14.351155 8.5757846 3.4002642 0.019919605 0.07088148 -0.010705101 0.5 -3.591833 23.684964 0.30815101 -0.13113988 -0.013989006 -0.11299882 1 10 1 -4.1177959e-08 -2.6459825e-07 9.1969131e-07 168 -1 494.5975 
13.245337 3.1398923 1.275409 0.0021613709 0.0051080332 0.0050042738 0.5 1.1981887 9.6275661 3.0376992 -0.014485395 0.00071335495 -0.011999515 1 10 1 3.7395425e-06 1.3203096e-06 -3.7754902e-07 102 -1 308.5153 