restart_version 2
name H4A25L1M0.5B0.5
xmin 0 xmax 20 ymin 0 ymax 10 zmin 0 zmax 4.8
dt 0.0001 t 500.0001 tmax 500 save_count 10000
dim 3 gravity 0.42261826 0 -0.90630779
options_fstat 0 options_data 0 options_ene 1 options_restart 1
Species 1
k 200000 disp 25 kt 57142.857 dispt 25 mu 0.5 rho 1.9098593 dim_particle 3
Walls 1
numFiniteWalls 0 normal 0 0 -1 position 1.7
WallsPeriodic 2
normal 1 0 0 pos_left 0 pos_right 20 shift 20 0 0
normal 0 1 0 pos_left 0 pos_right 10 shift 0 10 0
Particles 1093
0.58505316 4.9133055 -0.96154951 0 0 0 0.5 0 0 0 0 0 0 0 0 0 
6.3485404 6.7220675 -1.1855263 0 0 0 0.5 0 0 0 0 0 0 0 0 0 
14.947967 3.5412972 -0.18707407 0 0 0 0.5 0 0 0 0 0 0 0 0 0 
8.9275418 8.9599666 -0.18760551 0 0 0 0.5 0 0 0 0 0 0 0 0 0 
7.4653885 7.6215896 -0.17343071 0 0 0 0.5 0 0 0 0 0 0 0 0 0 
18.097846 1.7079932 -0.69140303 0 0 0 0.5 0 0 0 0 0 0 0 0 0 
13.396838 0.90429759 -0.073895505 0 0 0 0.5 0 0 0 0 0 0 0 0 0 
8.1675203 5.9553516 -0.15926171 0 0 0 0.5 0 0 0 0 0 0 0 0 0 
5.4344462 6.7046679 -0.78360927 0 0 0 0.5 0 0 0 0 0 0 0 0 0 
18.559843 6.7161248 -1.0434229 0 0 0 0.5 0 0 0 0 0 0 0 0 0 
17.319572 2.3245734 -0.55338196 0 0 0 0.5 0 0 0 0 0 0 0 0 0 
17.206102 9.7331408 -1.0086021 0 0 0 0.5 0 0 0 0 0 0 0 0 0 
11.279082 6.5057375 -0.60636446 0 0 0 0.5 0 0 0 0 0 0 0 0 0 
6.9449508 2.3743445 -1.1620771 0 0 0 0.5 0 0 0 0 0 0 0 0 0 
11.989215 5.8159356 -0.46700407 0 0 0 0.5 0 0 0 0 0 0 0 0 0 
1.106559 9.8743717 -0.93828655 0 0 0 0.5 0 0 0 0 0 0 0 0 0 
15.274452 7.9234086 -0.55244439 0 0 0 0.5 0 0 0 0 0 0 0 0 0 
6.6319169 8.5066956 -0.99486414 0 0 0 0.5 0 0 0 0 0 0 0 0 0 
6.1118269 9.1624654 -0.44859668 0 0 0 0.5 0 0 0 0 0 0 0 0 0 
2.5194547 1.2689926 -0.2568944 0 0 0 0.5 0 0 0 0 0 0 0 0 0 
10.108165 1.0419072 -0.19848928 0 0 0 0.5 0 0 0 0 0 0 0 0 0 
11.607982 9.2828525 -1.1759501 0 0 0 0.5 0 0 0 0 0 0 0 0 0 
11.548112 1.603346 -0.28060954 0 0 0 0.5 0 0 0 0 0 0 0 0 0 
3.4534341 5.7049874 -1.0961938 0 0 0 0.5 0 0 0 0 0 0 0 0 0 
13.587566 6.0208946 -0.84945025 0 0 0 0.5 0 0 0 0 0 0 0 0 0 
15.870159 8.7257525 -0.53635112 0 0 0 0.5 0 0 0 0 0 0 0 0 0 
19.530741 0.58178229 -0.039132493 0 0 0 0.5 0 0 0 0 0 0 0 0 0 
0.76984633 7.1042562 -0.37483612 0 0 0 0.5 0 0 0 0 0 0 0 0 0 
15.660723 3.5417757 -0.88790693 0 0 0 0.5 0 0 0 0 0 0 0 0 0 
5.111261 5.8703306 -0.33620796 0 0 0 0.5 0 0 0 0 0 0 0 0 0 
18.468521 9.1978071 -0.12791381 0 0 0 0.5 0 0 0 0 0 0 0 0 0 
12.099599 6.8593235 -1.0638388 0 0 0 0.5 0 0 0 0 0 0 0 0 0 
19.90808 8.7669071 -0.097407165 0 0 0 0.5 0 0 0 0 0 0 0 0 0 
18.547416 0.89398182 -0.32450937 0 0 0 0.5 0 0 0 0 0 0 0 0 0 
9.104516 4.7721439 -0.25792429 0 0 0 0.5 0 0 0 0 0 0 0 0 0 
10.561306 4.0632353 -0.42328317 0 0 0 0.5 0 0 0 0 0 0 0 0 0 
12.760317 3.0204489 -0.74582421 0 0 0 0.5 0 0 0 0 0 0 0 0 0 
14.50716 1.7803991 -0.88967219 0 0 0 0.5 0 0 0 0 0 0 0 0 0 
3.6615238 3.5272853 -0.45186554 0 0 0 0.5 0 0 0 0 0 0 0 0 0 
5.4608468 1.9599455 -0.58649036 0 0 0 0.5 0 0 0 0 0 0 0 0 0 
18.898306 3.8619275 -0.64367588 0 0 0 0.5 0 0 0 0 0 0 0 0 0 
1.2053945 5.6903256 -1.06809 0 0 0 0.5 0 0 0 0 0 0 0 0 0 
7.5244543 4.2747448 -0.7004982 0 0 0 0.5 0 0 0 0 0 0 0 0 0 
12.342224 4.5480937 -0.47529754 0 0 0 0.5 0 0 0 0 0 0 0 0 0 
3.0691801 8.4303957 -0.013870905 0 0 0 0.5 0 0 0 0 0 0 0 0 0 
8.0735487 2.3549278 -0.31805554 0 0 0 0.5 0 0 0 0 0 0 0 0 0 
6.6681764 5.1924265 -0.33803611 0 0 0 0.5 0 0 0 0 0 0 0 0 0 
4.1634934 5.5601536 -0.40659116 0 0 0 0.5 0 0 0 0 0 0 0 0 0 
6.7134169 4.2193828 -0.11279798 0 0 0 0.5 0 0 0 0 0 0 0 0 0 
19.851471 2.1374755 -0.90527864 0 0 0 0.5 0 0 0 0 0 0 0 0 0 
5.3067542 2.8559715 -0.14549909 0 0 0 0.5 0 0 0 0 0 0 0 0 0 
0.75188883 2.4925687 -0.65532601 0 0 0 0.5 0 0 0 0 0 0 0 0 0 
7.7171375 8.6315149 -0.2196694 0 0 0 0.5 0 0 0 0 0 0 0 0 0 
2.9914009 4.2417137 -0.25123205 0 0 0 0.5 0 0 0 0 0 0 0 0 0 
3.5086423 1.6702203 -0.51738726 0 0 0 0.5 0 0 0 0 0 0 0 0 0 
8.4619491 0.15456042 -1.137725 0 0 0 0.5 0 0 0 0 0 0 0 0 0 
11.529658 3.1987921 -1.1393956 0 0 0 0.5 0 0 0 0 0 0 0 0 0 
17.28177 4.2632305 -1.1776369 0 0 0 0.5 0 0 0 0 0 0 0 0 0 
5.4392668 8.467253 -0.69710884 0 0 0 0.5 0 0 0 0 0 0 0 0 0 
11.737686 0.81607698 -0.87321944 0 0 0 0.5 0 0 0 0 0 0 0 0 0 
19.107014 0.27972826 -0.89626377 0 0 0 0.5 0 0 0 0 0 0 0 0 0 
15.623774 9.7160762 -0.14447465 0 0 0 0.5 0 0 0 0 0 0 0 0 0 
6.1573033 3.789518 -0.82361 0 0 0 0.5 0 0 0 0 0 0 0 0 0 
10.104544 2.3131145 -0.99123231 0 0 0 0.5 0 0 0 0 0 0 0 0 0 
9.7940044 4.7282415 -0.98046439 0 0 0 0.5 0 0 0 0 0 0 0 0 0 
6.1225794 6.0095964 -0.52160291 0 0 0 0.5 0 0 0 0 0 0 0 0 0 
11.597712 7.3961179 -0.28192782 0 0 0 0.5 0 0 0 0 0 0 0 0 0 
0.37880405 9.7179487 -0.20751601 0 0 0 0.5 0 0 0 0 0 0 0 0 0 
14.398922 8.1105847 -1.0238645 0 0 0 0.5 0 0 0 0 0 0 0 0 0 
1.3620836 3.2839286 -0.66086448 0 0 0 0.5 0 0 0 0 0 0 0 0 0 
16.436145 1.9580215 -0.84577945 0 0 0 0.5 0 0 0 0 0 0 0 0 0 
3.6239472 7.3193236 -0.61617746 0 0 0 0.5 0 0 0 0 0 0 0 0 0 
11.735397 9.9268333 -0.41710419 0 0 0 0.5 0 0 0 0 0 0 0 0 0 
14.674346 8.967567 -0.51813124 0 0 0 0.5 0 0 0 0 0 0 0 0 0 
19.378847 9.6080743 -0.20689768 0 0 0 0.5 0 0 0 0 0 0 0 0 0 
10.239242 8.8231329 -1.0052383 0 0 0 0.5 0 0 0 0 0 0 0 0 0 
7.2354607 7.1585566 -1.0311915 0 0 0 0.5 0 0 0 0 0 0 0 0 0 
9.7646127 3.2336664 -0.80309627 0 0 0 0.5 0 0 0 0 0 0 0 0 0 
5.3431454 9.7247291 -0.14389415 0 0 0 0.5 0 0 0 0 0 0 0 0 0 
2.3991014 3.0282269 -1.096586 0 0 0 0.5 0 0 0 0 0 0 0 0 0 
0.40003969 3.4067076 -0.39178983 0 0 0 0.5 0 0 0 0 0 0 0 0 0 
1.6046609 1.6192534 -0.74371008 0 0 0 0.5 0 0 0 0 0 0 0 0 0 
18.998258 9.1371797 -1.0019822 0 0 0 0.5 0 0 0 0 0 0 0 0 0 
5.2865293 0.95913471 -0.58395681 0 0 0 0.5 0 0 0 0 0 0 0 0 0 
4.5632751 6.1072063 -1.1488007 0 0 0 0.5 0 0 0 0 0 0 0 0 0 
16.2007 6.1651188 -0.55042937 0 0 0 0.5 0 0 0 0 0 0 0 0 0 
0.11183491 0.57854339 -0.85252319 0 0 0 0.5 0 0 0 0 0 0 0 0 0 
16.637396 9.6355849 -0.11028091 0 0 0 0.5 0 0 0 0 0 0 0 0 0 
12.448341 1.1609964 -0.25990425 0 0 0 0.5 0 0 0 0 0 0 0 0 0 
19.846549 5.6911387 -0.50818453 0 0 0 0.5 0 0 0 0 0 0 0 0 0 
19.813035 3.9185244 -1.040678 0 0 0 0.5 0 0 0 0 0 0 0 0 0 
0.54806541 8.9625212 -0.84047199 0 0 0 0.5 0 0 0 0 0 0 0 0 0 
13.855125 5.5023309 -0.037750069 0 0 0 0.5 0 0 0 0 0 0 0 0 0 
4.5910879 3.221421 -0.74046746 0 0 0 0.5 0 0 0 0 0 0 0 0 0 
16.710936 7.0107234 -0.78300151 0 0 0 0.5 0 0 0 0 0 0 0 0 0 
2.1415117 3.909674 -0.66412762 0 0 0 0.5 0 0 0 0 0 0 0 0 0 
12.96594 8.6628596 -0.1835233 0 0 0 0.5 0 0 0 0 0 0 0 0 0 
13.625748 7.4447363 -0.23837835 0 0 0 0.5 0 0 0 0 0 0 0 0 0 
16.874373 8.8251625 -0.75604515 0 0 0 0.5 0 0 0 0 0 0 0 0 0 
13.552144 3.0264365 -0.025690834 0 0 0 0.5 0 0 0 0 0 0 0 0 0 
10.403206 9.8567712 -1.1826921 0 0 0 0.5 0 0 0 0 0 0 0 0 0 
19.857628 9.6417779 -1.089004 0 0 0 0.5 0 0 0 0 0 0 0 0 0 
10.862988 0.45873277 -0.50899856 0 0 0 0.5 0 0 0 0 0 0 0 0 0 
18.908428 5.2724161 -0.48122768 0 0 0 0.5 0 0 0 0 0 0 0 0 0 
8.5431219 1.8014968 -1.1077694 0 0 0 0.5 0 0 0 0 0 0 0 0 0 
0.75447138 7.9855839 -0.84431011 0 0 0 0.5 0 0 0 0 0 0 0 0 0 
19.37491 2.9850492 -0.67097233 0 0 0 0.5 0 0 0 0 0 0 0 0 0 
3.0109103 3.8164738 -1.1551792 0 0 0 0.5 0 0 0 0 0 0 0 0 0 
12.713892 1.9602873 -0.94833561 0 0 0 0.5 0 0 0 0 0 0 0 0 0 
14.072798 6.4837266 -0.10841721 0 0 0 0.5 0 0 0 0 0 0 0 0 0 
2.204839 8.4223841 -0.51565486 0 0 0 0.5 0 0 0 0 0 0 0 0 0 
17.624556 9.795491 -0.10263276 0 0 0 0.5 0 0 0 0 0 0 0 0 0 
14.668124 4.8092286 -0.11586732 0 0 0 0.5 0 0 0 0 0 0 0 0 0 
2.0654384 6.062711 -0.70466934 0 0 0 0.5 0 0 0 0 0 0 0 0 0 
2.4538933 7.4553006 -0.34387167 0 0 0 0.5 0 0 0 0 0 0 0 0 0 
14.229361 5.230882 -0.92467561 0 0 0 0.5 0 0 0 0 0 0 0 0 0 
17.901358 6.8331574 -0.29053341 0 0 0 0.5 0 0 0 0 0 0 0 0 0 
8.2677224 4.2729025 -0.031728699 0 0 0 0.5 0 0 0 0 0 0 0 0 0 
7.9263595 3.3460553 -0.3404578 0 0 0 0.5 0 0 0 0 0 0 0 0 0 
7.3895326 5.3093137 -1.0210915 0 0 0 0.5 0 0 0 0 0 0 0 0 0 
1.4879527 5.4805541 -0.13213001 0 0 0 0.5 0 0 0 0 0 0 0 0 0 
8.9130886 6.5164915 -0.90709767 0 0 0 0.5 0 0 0 0 0 0 0 0 0 
4.4928777 9.2709399 -0.79455025 0 0 0 0.5 0 0 0 0 0 0 0 0 0 
14.455189 9.9787287 -0.5232286 0 0 0 0.5 0 0 0 0 0 0 0 0 0 
1.1867345 8.6984892 -0.11464773 0 0 0 0.5 0 0 0 0 0 0 0 0 0 
19.817351 6.8405395 -0.22561807 0 0 0 0.5 0 0 0 0 0 0 0 0 0 
2.0219217 0.74176863 -0.98013868 0 0 0 0.5 0 0 0 0 0 0 0 0 0 
7.30703 0.93434933 -0.030497171 0 0 0 0.5 0 0 0 0 0 0 0 0 0 
17.951547 3.6331316 -0.41881797 0 0 0 0.5 0 0 0 0 0 0 0 0 0 
19.728448 4.7022767 -0.42652172 0 0 0 0.5 0 0 0 0 0 0 0 0 0 
13.718485 2.8990773 -1.003553 0 0 0 0.5 0 0 0 0 0 0 0 0 0 
4.90986 4.9112718 -0.55428536 0 0 0 0.5 0 0 0 0 0 0 0 0 0 
14.846165 1.213919 -0.13719189 0 0 0 0.5 0 0 0 0 0 0 0 0 0 
16.539997 5.3973841 -0.0073622806 0 0 0 0.5 0 0 0 0 0 0 0 0 0 
18.966158 2.1101535 -0.4014428 0 0 0 0.5 0 0 0 0 0 0 0 0 0 
1.8431145 0.5612314 -0.013130508 0 0 0 0.5 0 0 0 0 0 0 0 0 0 
6.6426385 6.9307721 -0.25210727 0 0 0 0.5 0 0 0 0 0 0 0 0 0 
10.494857 6.0910505 -0.11346153 0 0 0 0.5 0 0 0 0 0 0 0 0 0 
9.4804656 8.2560089 -0.68543307 0 0 0 0.5 0 0 0 0 0 0 0 0 0 
7.2846723 6.2228269 -0.54409828 0 0 0 0.5 0 0 0 0 0 0 0 0 0 
6.1777927 0.86855369 -0.13771406 0 0 0 0.5 0 0 0 0 0 0 0 0 0 
11.75915 5.0777923 -1.1299237 0 0 0 0.5 0 0 0 0 0 0 0 0 0 
0.96303899 4.2308073 -0.33182226 0 0 0 0.5 0 0 0 0 0 0 0 0 0 
2.6153692 9.2980051 -0.22304594 0 0 0 0.5 0 0 0 0 0 0 0 0 0 
8.778508 2.7791869 -0.88732292 0 0 0 0.5 0 0 0 0 0 0 0 0 0 
1.5324334 8.9711165 -1.0118544 0 0 0 0.5 0 0 0 0 0 0 0 0 0 
12.899454 5.4213517 -0.3418525 0 0 0 0.5 0 0 0 0 0 0 0 0 0 
8.0968168 5.9995761 -1.1655186 0 0 0 0.5 0 0 0 0 0 0 0 0 0 
16.175215 1.2421698 -0.19813597 0 0 0 0.5 0 0 0 0 0 0 0 0 0 
13.951914 8.3849382 -0.14939357 0 0 0 0.5 0 0 0 0 0 0 0 0 0 
0.47275264 1.4519059 -0.52552414 0 0 0 0.5 0 0 0 0 0 0 0 0 0 
9.9530575 5.707951 -0.86162606 0 0 0 0.5 0 0 0 0 0 0 0 0 0 
18.862217 7.2226053 -0.22492824 0 0 0 0.5 0 0 0 0 0 0 0 0 0 
2.7325631 3.256138 -0.18164039 0 0 0 0.5 0 0 0 0 0 0 0 0 0 
0.85408746 0.59607089 -0.15682555 0 0 0 0.5 0 0 0 0 0 0 0 0 0 
4.4634328 1.9686108 -0.66973073 0 0 0 0.5 0 0 0 0 0 0 0 0 0 
9.474988 1.5511984 -0.84812638 0 0 0 0.5 0 0 0 0 0 0 0 0 0 
14.571299 6.1698083 -0.94561175 0 0 0 0.5 0 0 0 0 0 0 0 0 0 
7.097611 9.3072744 -0.61916384 0 0 0 0.5 0 0 0 0 0 0 0 0 0 
2.9981643 6.3022728 -0.43608243 0 0 0 0.5 0 0 0 0 0 0 0 0 0 
17.308462 4.3189433 -0.070252504 0 0 0 0.5 0 0 0 0 0 0 0 0 0 
19.021284 6.2361319 -0.24080378 0 0 0 0.5 0 0 0 0 0 0 0 0 0 
4.4011536 1.0407829 -1.0467281 0 0 0 0.5 0 0 0 0 0 0 0 0 0 
2.1544604 9.7513976 -0.98596241 0 0 0 0.5 0 0 0 0 0 0 0 0 0 
0.082659381 7.2925587 -1.1064262 0 0 0 0.5 0 0 0 0 0 0 0 0 0 
3.7857975 8.5717924 -0.69593688 0 0 0 0.5 0 0 0 0 0 0 0 0 0 
1.0374762 0.86160611 -1.1030912 0 0 0 0.5 0 0 0 0 0 0 0 0 0 
18.146553 5.9166698 -0.60522252 0 0 0 0.5 0 0 0 0 0 0 0 0 0 
11.383212 4.9535511 -0.21192699 0 0 0 0.5 0 0 0 0 0 0 0 0 0 
15.310094 5.1056999 -0.823461 0 0 0 0.5 0 0 0 0 0 0 0 0 0 
2.9981667 9.0015032 -1.1371301 0 0 0 0.5 0 0 0 0 0 0 0 0 0 
4.420586 0.10416938 -0.20974267 0 0 0 0.5 0 0 0 0 0 0 0 0 0 
9.2000751 0.61220431 -0.64385573 0 0 0 0.5 0 0 0 0 0 0 0 0 0 
14.549406 7.236509 -0.56179067 0 0 0 0.5 0 0 0 0 0 0 0 0 0 
16.306061 7.8367993 -0.38675315 0 0 0 0.5 0 0 0 0 0 0 0 0 0 
15.473425 1.5251493 -0.85206261 0 0 0 0.5 0 0 0 0 0 0 0 0 0 
17.681486 0.60579182 -0.73405356 0 0 0 0.5 0 0 0 0 0 0 0 0 0 
13.321083 0.24404186 -0.81954003 0 0 0 0.5 0 0 0 0 0 0 0 0 0 
10.779779 1.3924882 -0.88397849 0 0 0 0.5 0 0 0 0 0 0 0 0 0 
9.5946475 6.7275971 -0.20167334 0 0 0 0.5 0 0 0 0 0 0 0 0 0 
18.16575 7.6524645 -0.79898575 0 0 0 0.5 0 0 0 0 0 0 0 0 0 
11.935548 2.4723711 -0.58674286 0 0 0 0.5 0 0 0 0 0 0 0 0 0 
3.4416852 4.7078752 -1.0131005 0 0 0 0.5 0 0 0 0 0 0 0 0 0 
1.90089 7.7032372 -1.1389539 0 0 0 0.5 0 0 0 0 0 0 0 0 0 
10.892818 9.3901681 -0.44742748 0 0 0 0.5 0 0 0 0 0 0 0 0 0 
4.5027131 6.867304 -0.45940355 0 0 0 0.5 0 0 0 0 0 0 0 0 0 
10.386921 5.0362205 -0.23310526 0 0 0 0.5 0 0 0 0 0 0 0 0 0 
6.1783379 2.7032397 -0.61065501 0 0 0 0.5 0 0 0 0 0 0 0 0 0 
13.826892 6.9378723 -1.1829316 0 0 0 0.5 0 0 0 0 0 0 0 0 0 
7.0611606 2.4099425 -0.16984285 0 0 0 0.5 0 0 0 0 0 0 0 0 0 
14.512054 2.6736134 -0.43863079 0 0 0 0.5 0 0 0 0 0 0 0 0 0 
5.4197504 9.407916 -1.1412983 0 0 0 0.5 0 0 0 0 0 0 0 0 0 
10.03673 0.78597662 -1.1622151 0 0 0 0.5 0 0 0 0 0 0 0 0 0 
6.7862447 0.076482497 -0.062201319 0 0 0 0.5 0 0 0 0 0 0 0 0 0 
4.2853143 4.1927795 -0.86104125 0 0 0 0.5 0 0 0 0 0 0 0 0 0 
15.21973 9.6111919 -1.0534245 0 0 0 0.5 0 0 0 0 0 0 0 0 0 
8.9287389 3.6934136 -0.50735315 0 0 0 0.5 0 0 0 0 0 0 0 0 0 
10.679215 2.1170786 -0.1975933 0 0 0 0.5 0 0 0 0 0 0 0 0 0 
16.217274 9.5333822 -1.0129873 0 0 0 0.5 0 0 0 0 0 0 0 0 0 
2.1301398 4.7166846 -0.073127174 0 0 0 0.5 0 0 0 0 0 0 0 0 0 
15.596865 4.3242661 -0.26980709 0 0 0 0.5 0 0 0 0 0 0 0 0 0 
13.496812 8.5507609 -1.0266722 0 0 0 0.5 0 0 0 0 0 0 0 0 0 
3.9033251 4.6409566 -0.05288374 0 0 0 0.5 0 0 0 0 0 0 0 0 0 
13.663854 9.3692578 -0.47566034 0 0 0 0.5 0 0 0 0 0 0 0 0 0 
1.773472 2.4714707 -0.24874738 0 0 0 0.5 0 0 0 0 0 0 0 0 0 
1.5097831 7.7577312 -0.21579175 0 0 0 0.5 0 0 0 0 0 0 0 0 0 
11.485431 4.1440352 -0.79317342 0 0 0 0.5 0 0 0 0 0 0 0 0 0 
8.9015153 7.4224411 -0.39931829 0 0 0 0.5 0 0 0 0 0 0 0 0 0 
17.80058 8.9405847 -1.1977238 0 0 0 0.5 0 0 0 0 0 0 0 0 0 
17.427821 3.1214963 -1.1470785 0 0 0 0.5 0 0 0 0 0 0 0 0 0 
15.206366 5.8794854 -0.19886438 0 0 0 0.5 0 0 0 0 0 0 0 0 0 
16.491524 3.8942086 -0.45891116 0 0 0 0.5 0 0 0 0 0 0 0 0 0 
2.9971501 8.0148061 -0.96851259 0 0 0 0.5 0 0 0 0 0 0 0 0 0 
11.991956 8.4396982 -0.19273671 0 0 0 0.5 0 0 0 0 0 0 0 0 0 
11.083093 2.3045877 -1.1954584 0 0 0 0.5 0 0 0 0 0 0 0 0 0 
5.3173455 7.4719255 -0.15163212 0 0 0 0.5 0 0 0 0 0 0 0 0 0 
1.7665726 6.7865645 -0.057913143 0 0 0 0.5 0 0 0 0 0 0 0 0 0 
19.373638 1.2664182 -0.75038304 0 0 0 0.5 0 0 0 0 0 0 0 0 0 
19.5187 6.4348201 -1.0889785 0 0 0 0.5 0 0 0 0 0 0 0 0 0 
13.054242 3.8643568 -0.29247159 0 0 0 0.5 0 0 0 0 0 0 0 0 0 
17.111396 3.1932266 -0.10381357 0 0 0 0.5 0 0 0 0 0 0 0 0 0 
19.995928 2.5713855 -0.0058165773 0 0 0 0.5 0 0 0 0 0 0 0 0 0 
16.693603 0.49878688 -0.62072726 0 0 0 0.5 0 0 0 0 0 0 0 0 0 
5.8892691 4.7510889 -0.78280386 0 0 0 0.5 0 0 0 0 0 0 0 0 0 
4.6028388 7.8949858 -0.70863327 0 0 0 0.5 0 0 0 0 0 0 0 0 0 
1.4770568 6.8069729 -1.015628 0 0 0 0.5 0 0 0 0 0 0 0 0 0 
17.28748 6.0172275 -1.1111593 0 0 0 0.5 0 0 0 0 0 0 0 0 0 
14.694807 0.80334528 -1.0359407 0 0 0 0.5 0 0 0 0 0 0 0 0 0 
10.945192 5.5874787 -0.85394184 0 0 0 0.5 0 0 0 0 0 0 0 0 0 
2.5106704 5.1848648 -0.87351227 0 0 0 0.5 0 0 0 0 0 0 0 0 0 
8.4835011 8.2614671 -0.74873423 0 0 0 0.5 0 0 0 0 0 0 0 0 0 
0.72683119 6.1108678 -0.28375125 0 0 0 0.5 0 0 0 0 0 0 0 0 0 
15.210424 2.4472798 -1.1328274 0 0 0 0.5 0 0 0 0 0 0 0 0 0 
9.1443334 5.7745834 -0.27781523 0 0 0 0.5 0 0 0 0 0 0 0 0 0 
6.9999968 3.2649838 -0.70676678 0 0 0 0.5 0 0 0 0 0 0 0 0 0 
6.0293584 0.10570187 -0.76627381 0 0 0 0.5 0 0 0 0 0 0 0 0 0 
9.4829498 9.6014621 -0.71600899 0 0 0 0.5 0 0 0 0 0 0 0 0 0 
17.236634 5.1228021 -0.66954167 0 0 0 0.5 0 0 0 0 0 0 0 0 0 
3.7004912 2.601073 -0.82411827 0 0 0 0.5 0 0 0 0 0 0 0 0 0 
14.796745 4.2471932 -0.93262098 0 0 0 0.5 0 0 0 0 0 0 0 0 0 
7.545646 8.1079647 -1.0546608 0 0 0 0.5 0 0 0 0 0 0 0 0 0 
13.611008 2.0018797 -0.50636633 0 0 0 0.5 0 0 0 0 0 0 0 0 0 
10.358826 6.8179017 -0.84016948 0 0 0 0.5 0 0 0 0 0 0 0 0 0 
2.7362771 0.30274858 -0.39145031 0 0 0 0.5 0 0 0 0 0 0 0 0 0 
3.5051263 9.634006 -0.5402299 0 0 0 0.5 0 0 0 0 0 0 0 0 0 
15.645944 2.7454887 -0.2838409 0 0 0 0.5 0 0 0 0 0 0 0 0 0 
8.0626069 6.8906254 -0.53807006 0 0 0 0.5 0 0 0 0 0 0 0 0 0 
4.4000594 1.1914735 -0.042930598 0 0 0 0.5 0 0 0 0 0 0 0 0 0 
12.463863 8.7771146 -1.0562557 0 0 0 0.5 0 0 0 0 0 0 0 0 0 
3.6547854 0.6823975 -0.48774329 0 0 0 0.5 0 0 0 0 0 0 0 0 0 
9.4583514 2.4316395 -0.23761008 0 0 0 0.5 0 0 0 0 0 0 0 0 0 
17.235888 1.4180544 -1.1081598 0 0 0 0.5 0 0 0 0 0 0 0 0 0 
11.131413 8.4537954 -0.69942086 0 0 0 0.5 0 0 0 0 0 0 0 0 0 
7.4677319 1.6579197 -0.70148273 0 0 0 0.5 0 0 0 0 0 0 0 0 0 
16.487422 2.9566514 -0.85060866 0 0 0 0.5 0 0 0 0 0 0 0 0 0 
18.089691 4.6013124 -0.62698314 0 0 0 0.5 0 0 0 0 0 0 0 0 0 
3.21221 5.3514681 -0.18175119 0 0 0 0.5 0 0 0 0 0 0 0 0 0 
17.81711 8.4633382 -0.31922551 0 0 0 0.5 0 0 0 0 0 0 0 0 0 
6.4514871 1.7128109 -0.59772958 0 0 0 0.5 0 0 0 0 0 0 0 0 0 
11.9125 7.9430746 -1.056566 0 0 0 0.5 0 0 0 0 0 0 0 0 0 
10.71928 3.0455818 -0.57526443 0 0 0 0.5 0 0 0 0 0 0 0 0 0 
19.11524 7.5415629 -1.138982 0 0 0 0.5 0 0 0 0 0 0 0 0 0 
19.694131 7.8247941 -0.35504509 0 0 0 0.5 0 0 0 0 0 0 0 0 0 
5.4265734 4.1129608 -0.16200403 0 0 0 0.5 0 0 0 0 0 0 0 0 0 
19.697312 8.4362537 -1.1464013 0 0 0 0.5 0 0 0 0 0 0 0 0 0 
2.6595861 2.1894124 -0.62039795 0 0 0 0.5 0 0 0 0 0 0 0 0 0 
10.370747 7.8156587 -0.79876287 0 0 0 0.5 0 0 0 0 0 0 0 0 0 
6.143166 7.6879511 -0.67153191 0 0 0 0.5 0 0 0 0 0 0 0 0 0 
15.382857 6.7105541 -0.72788193 0 0 0 0.5 0 0 0 0 0 0 0 0 0 
12.666575 9.5691379 -0.48127503 0 0 0 0.5 0 0 0 0 0 0 0 0 0 
13.752102 1.1315246 -0.98090619 0 0 0 0.5 0 0 0 0 0 0 0 0 0 
13.412481 4.6745712 -0.76537057 0 0 0 0.5 0 0 0 0 0 0 0 0 0 
14.031854 3.733832 -0.54430265 0 0 0 0.5 0 0 0 0 0 0 0 0 0 
8.3234198 1.0655823 -0.45838457 0 0 0 0.5 0 0 0 0 0 0 0 0 0 
8.2835835 4.9160751 -0.8103574 0 0 0 0.5 0 0 0 0 0 0 0 0 0 
1.5738663 4.7749163 -0.90680043 0 0 0 0.5 0 0 0 0 0 0 0 0 0 
18.235345 9.7889761 -0.89873435 0 0 0 0.5 0 0 0 0 0 0 0 0 0 
8.2160973 9.2160146 -0.87657125 0 0 0 0.5 0 0 0 0 0 0 0 0 0 
5.2095544 3.9102176 -1.1172947 0 0 0 0.5 0 0 0 0 0 0 0 0 0 
6.8674456 0.64594436 -0.88236818 0 0 0 0.5 0 0 0 0 0 0 0 0 0 
1.6410673 9.5903859 -0.14282761 0 0 0 0.5 0 0 0 0 0 0 0 0 0 
7.8462888 0.15593423 -0.35058432 0 0 0 0.5 0 0 0 0 0 0 0 0 0 
15.618713 0.54269904 -0.71011853 0 0 0 0.5 0 0 0 0 0 0 0 0 0 
12.860839 7.8259723 -0.76079418 0 0 0 0.5 0 0 0 0 0 0 0 0 0 
16.27362 4.8410681 -0.79414944 0 0 0 0.5 0 0 0 0 0 0 0 0 0 
18.832187 8.3224188 -0.44529307 0 0 0 0.5 0 0 0 0 0 0 0 0 0 
17.228756 1.3078273 -0.1149133 0 0 0 0.5 0 0 0 0 0 0 0 0 0 
17.114241 6.2314884 -0.15005823 0 0 0 0.5 0 0 0 0 0 0 0 0 0 
17.194399 7.883175 -0.84415418 0 0 0 0.5 0 0 0 0 0 0 0 0 0 
12.980356 6.7737812 -0.60060673 0 0 0 0.5 0 0 0 0 0 0 0 0 0 
18.276876 2.7417285 -0.78065697 0 0 0 0.5 0 0 0 0 0 0 0 0 0 
7.6366306 5.101962 -0.070530056 0 0 0 0.5 0 0 0 0 0 0 0 0 0 
2.8203993 6.9790484 -1.1519655 0 0 0 0.5 0 0 0 0 0 0 0 0 0 
5.7947344 1.6116584 2.6403623 0.094520092 0.097131353 0.032399913 0.5 1.2948642 21.863176 3.1437704 0.09170933 0.050573093 -0.19202813 1 10 0 
16.724363 9.7034107 0.88356999 0.039129503 0.021826097 -0.002446354 0.5 -3.7079865 13.70744 -6.3668381 -0.053500576 0.060703004 -0.075253833 1 10 1 1.0325665e-05 3.8950612e-06 -1.1693737e-06 87 -1 500.0001 
6.5504502 5.4992826 1.4595108 0.043611533 0.056851251 -0.038892338 0.5 3.1099171 25.535063 1.8472699 -0.050436013 -0.067868842 -0.0066887967 1 10 0 
0.72360682 1.4549985 1.8664316 0.034846566 0.017700047 0.025068102 0.5 1.4132823 6.732251 2.3115661 0.037037724 -0.022530388 -0.077156739 1 10 1 1.4912062e-06 7.6412431e-07 -1.9620074e-07 6 -1 381.8922 
8.1339487 5.3694173 1.630041 0.082652077 0.0015815006 -0.013633567 0.5 -0.22471903 14.355413 -1.3453143 -0.099961468 -0.087979082 0.049076058 1 10 1 2.9621358e-07 8.9723983e-07 -4.66024e-07 295 -1 485.8639 
12.650147 0.29797956 0.20320308 0.00063731109 -0.00092104608 -0.0015194853 0.5 -1.2402903 3.6947477 0.11086067 0.0021490914 0.002061112 -0.0026914136 1 10 2 6.3056958e-06 8.4392471e-07 -1.1751311e-06 88 -1 500.0001 -2.6655827e-06 5.7044184e-06 -6.1381186e-06 269 -1 500.0001 
12.444748 6.4888351 1.0075376 0.025214606 -0.0072827789 -0.0077397915 0.5 0.68821677 6.3136517 0.45688711 -0.039162296 0.008693159 -0.1119207 1 10 1 1.8580548e-06 1.7742956e-06 -6.4738491e-07 137 -1 405.417 
19.405148 6.0592896 2.2171255 0.045655209 0.04931533 0.020928554 0.5 -3.7768067 13.195505 1.9114051 -0.10030607 -0.028769377 0.16781387 1 10 1 4.2517701e-07 5.9414422e-08 4.0325332e-08 299 -1 219.2142 
17.155279 7.2126933 1.4427037 0.013282054 0.038906268 -0.0095567258 0.5 0.82764661 10.088784 -3.2563927 -0.001519254 -0.063621395 0.046827204 1 10 1 2.3960251e-07 -3.5720349e-07 5.0564931e-08 299 -1 293.0479 
0.81578917 2.0191944 0.22318574 -0.0024590254 0.0043764603 -0.0083122117 0.5 1.069454 6.7499911 -1.1898021 -0.0054109163 -0.01362393 0.0015898503 1 10 1 4.263104e-05 -1.4568443e-05 -1.0950867e-05 51 -1 500.0001 
7.4363873 3.5285392 1.3741144 0.043070038 -0.032157605 0.016105033 0.5 -1.5897839 13.764166 -0.53180627 0.036387151 0.059462544 0.024596823 1 10 1 3.1137701e-06 2.7303258e-06 1.1109024e-06 48 -1 394.6502 
1.4744667 4.412724 1.5108831 0.020739042 0.0080121364 0.069463868 0.5 2.0284897 9.0768059 5.5867844 -0.067556401 0.07316 -0.031648411 1 10 1 5.7302976e-07 -2.1340966e-07 1.0496378e-07 48 -1 66.5857 
4.200408 8.2247377 0.14528319 -0.00024269777 0.0019527275 0.0030024249 0.5 -2.4118811 5.6781359 -0.54242055 0.051797836 -0.069627082 0.0020869598 1 10 2 -3.7037831e-05 -5.8950408e-06 -1.5178607e-05 224 -1 500.0001 4.7353434e-08 4.1990161e-08 -6.0154819e-09 165 -1 500 
16.067467 5.1074407 2.0725265 0.072382623 0.073484284 0.025145254 0.5 0.88094178 25.680138 1.2130104 -0.094827012 -0.020671765 0.095058857 1 10 1 1.8232326e-06 -3.8405186e-09 -1.3441646e-06 297 -1 387.8382 
16.752056 6.298505 1.4866221 0.08315231 0.010560445 0.025312923 0.5 -1.4904829 16.020544 4.7119955 -0.011221532 0.038401185 0.10086911 1 10 1 5.8132825e-07 -2.8342116e-07 -5.4729926e-07 301 -1 499.9827 
12.100039 3.3010824 1.2291009 0.038745927 -0.028852318 0.0032750466 0.5 0.76468573 5.3022671 0.45819227 0.067113913 0.21161895 0.044796749 1 10 1 6.4876546e-06 3.6502667e-06 -1.0213269e-06 303 -1 382.144 
13.560453 3.3282954 1.48649 0.038540515 0.011811433 0.01277476 0.5 -2.6541165 13.52745 4.488897 -0.047145589 0.059606843 0.061759652 1 10 1 5.2093665e-06 -1.69504e-06 5.6230153e-07 50 -1 241.4523 
9.2474276 3.2334529 0.32144961 -0.01247148 -0.012456264 -0.0041351273 0.5 0.28534357 6.1917559 -0.67890736 -0.013668589 0.050265784 0.023204304 1 10 1 -5.0140281e-05 -1.7836476e-05 6.6643076e-06 250 -1 500.0001 
1.6319944 6.6494085 1.7097792 0.046359227 0.023261846 0.025949145 0.5 3.1283944 18.051485 -2.8792041 0.012538399 0.15179297 -0.031889859 1 10 1 1.6193072e-07 1.556046e-07 -4.3188545e-07 300 -1 372.9641 
19.821518 8.1891969 0.73249042 0.00081091433 0.00652862 0.00054706456 0.5 1.6246411 4.0137083 4.1073815 0.005193127 -0.010297133 -0.00034117198 1 10 1 1.3110062e-06 1.2882717e-06 1.2657908e-06 32 -1 486.1185 
14.090298 1.0270549 0.73341992 -0.0048450256 -0.019169517 -0.038501634 0.5 -2.5319826 5.6860189 -1.4258854 0.0434139 0.085853427 -0.038302184 1 10 1 1.204665e-06 -7.41484e-07 -5.2298137e-08 6 -1 474.2747 
12.005778 2.7935325 0.37228059 0.00018047748 -0.0014340016 -0.0049295172 0.5 2.3517722 4.0200052 -0.034346327 -0.016339376 -0.0066535226 0.011178386 1 10 1 -2.0589196e-06 2.3367404e-06 -1.180737e-06 308 -1 499.8377 
13.127989 7.0769971 2.6823845 0.17162062 -0.054530556 -0.047804783 0.5 4.776683 18.335806 -9.3845677 0.057419108 0.33508251 -0.10461029 1 10 1 -5.8610212e-06 2.0082731e-06 -3.5071877e-08 174 -1 13.3533 
13.481866 6.9397723 3.6076847 0.31766345 -0.086910278 -0.12057875 0.5 2.6156757 45.393197 2.6673349 -0.10998871 0.055614777 -0.28670149 1 10 1 -5.379816e-06 -5.6599333e-06 1.2111442e-06 315 -1 499.9902 
10.576884 6.8755452 1.8429484 0.050915928 -0.015822247 0.011598212 0.5 1.0414732 17.535009 0.15482972 -0.026638951 0.12113939 0.11503143 1 10 1 2.874926e-07 -3.2631391e-09 -1.3673645e-08 262 -1 272.2167 
3.8423463 6.36248 0.096518949 0.0085935453 -0.0036943479 0.0059991524 0.5 -1.0415338 1.5464908 -1.5069638 0.042456243 0.00067123409 -0.026078142 1 10 3 1.0756135e-05 -4.9393892e-07 1.2328412e-05 185 -1 500.0001 -1.0566297e-05 -2.388614e-05 1.9447933e-05 159 -1 500.0001 -5.2232447e-06 6.2717912e-06 -1.3335954e-05 47 -1 500.0001 
6.7167035 1.0313839 0.77078244 0.0067995908 0.0014402733 -0.003401455 0.5 -7.1836418 11.995459 0.41250408 0.022050839 0.0054900824 -0.017774083 1 10 1 -1.7234532e-05 -2.4540319e-05 -9.7253706e-06 127 -1 500.0001 
3.2911277 6.1943887 0.91390225 -0.012879727 -0.005357266 0.023525797 0.5 -5.6417802 0.51736434 -0.99848626 -0.010548985 0.018113973 0.0099830417 1 10 1 1.0826806e-06 9.0317406e-07 9.1598848e-07 318 -1 499.994 
0.06679763 3.5755772 2.4928459 0.022801516 -0.16295355 -0.055565582 0.5 -1.4006024 27.866335 4.6244324 0.34325518 -0.058301879 -0.021077234 1 10 1 7.5328937e-07 -2.3801364e-07 7.3578986e-08 309 -1 410.6334 
10.364179 8.5178798 -0.061223259 0.0036465947 -0.0027214692 0.0052959699 0.5 0.039390333 2.170335 -5.1567753 -0.0085022432 0.019527828 -0.012104509 1 10 1 -3.8131951e-05 -1.0432696e-05 1.6731462e-06 75 -1 500.0001 
1.6799182 3.7997941 0.21615251 0.0088397644 0.0040710422 0.011646688 0.5 1.0414825 6.2819516 2.7567784 -0.027414521 -0.017548354 -0.00044652082 1 10 1 1.8252134e-05 2.4895681e-06 -2.1919877e-05 142 -1 500.0001 
8.2119285 0.099951092 2.8319802 0.15546349 0.0096268001 -0.01139255 0.5 1.8554679 12.491848 -1.3846487 0.015960092 0.21090537 0.25997447 1 10 1 -1.6450279e-07 5.7139245e-08 3.6820687e-07 315 -1 380.9793 
8.3749278 8.635225 3.2174728 0.20374488 -0.063113146 -0.010531912 0.5 4.0306066 37.667989 3.0582859 0.21734964 -0.055078265 -0.14518235 1 10 1 -2.9752742e-06 -6.3294601e-07 -1.2950171e-06 324 -1 493.1036 
7.4736661 7.7515855 2.3329369 0.075913505 -0.01421104 -0.017743723 0.5 1.7251788 39.989861 -3.8925646 0.013876933 0.17873105 -0.15492208 1 10 1 8.7674734e-07 4.6795062e-07 -3.6397427e-06 316 -1 482.1849 
19.357452 7.281826 2.3180906 0.11020947 0.0013310144 -0.027616511 0.5 -4.4891435 13.884642 8.1446034 -0.13236246 -0.14206972 -0.057514386 1 10 1 -6.0059271e-07 -8.0024658e-08 8.0814397e-07 301 -1 483.2142 
9.8548489 6.2146191 1.6384586 0.0487578 -0.01673862 0.0042878249 0.5 1.9060616 21.610672 -1.8582632 0.0040078839 -0.083029422 -0.1234067 1 10 1 1.5093728e-05 -1.4056782e-05 -7.8620123e-06 317 -1 500.0001 
14.682483 5.3093008 3.3574812 0.09752103 -0.19900364 -0.16277746 0.5 -1.0048732 27.194615 1.5490727 0.21287813 -0.57759148 0.23834261 1 10 1 -1.578365e-07 -2.8492397e-07 5.1474418e-07 315 -1 415.7367 
11.448986 1.5440405 0.71268551 -0.0059000528 -0.0013423645 0.0010270404 0.5 -2.2807277 8.6707269 3.0262283 0.006795151 -3.4619542e-05 -0.0079420003 1 10 1 3.3850306e-06 -6.6899161e-07 2.9786901e-07 22 -1 500.0001 
15.630884 5.1343455 0.31547002 0.0012640828 -0.0021378608 -0.0057919233 0.5 1.7726438 2.6551219 0.29611396 0.020428805 -0.010366009 0.01510943 1 10 3 -1.0290778e-05 -2.0436632e-06 -3.06445e-05 133 -1 500.0001 -4.745154e-06 2.6171032e-06 7.7080492e-06 210 -1 500.0001 5.2197841e-06 1.604139e-05 -2.250622e-05 200 -1 500.0001 
2.6175852 2.0093047 0.40815563 0.0079531523 -0.0079862839 0.011958037 0.5 -1.9410156 4.3288035 1.3154705 0.025288081 0.054564694 0.0067313241 1 10 1 -1.3622479e-05 -1.3749918e-06 3.5406425e-06 19 -1 500.0001 
16.563268 3.6998619 0.5616551 0.0091085777 0.0052719138 0.010331784 0.5 -4.6999238 8.7250075 3.6508329 0.033952782 -0.0055691786 -0.068294161 1 10 1 1.6598555e-05 1.8754453e-05 -6.0637135e-07 220 -1 500.0001 
6.3208895 4.9666184 2.4987004 0.18594808 0.16899383 -0.13100653 0.5 -5.2703172 18.786146 1.4949048 -0.068244035 0.10672685 -0.40374989 1 10 1 1.8163453e-06 -6.4666977e-07 -2.9406763e-06 307 -1 401.8931 
14.373359 1.9907801 0.27862083 0.0016633064 -0.0028249314 0.0029472888 0.5 -1.7906395 5.6146742 -0.29367279 0.013536239 0.00065377695 0.00049725234 1 10 2 3.5106479e-05 -1.6607301e-05 -9.0218785e-06 190 -1 500.0001 -9.0102462e-06 -4.2852072e-06 -2.2391915e-06 132 -1 500.0001 
15.502199 6.1452065 3.6692862 0.23198943 0.14060617 -0.088555767 0.5 -0.72130078 28.926894 -1.72971 -0.29048575 -0.14869495 -0.31567422 1 10 1 2.9400787e-06 1.352578e-06 -5.3853738e-06 329 -1 498.2499 
16.1143 0.4283448 1.2034612 0.021088922 -0.0050157092 -0.0049812551 0.5 -3.0778841 13.096819 2.5188806 -0.049181522 -0.16457589 0.0064891896 1 10 1 -1.2480762e-07 -2.7564515e-07 3.8682027e-07 294 -1 499.9468 
19.642831 5.2889852 0.38926205 0.0026258486 -0.0075051188 0.0003860543 0.5 2.6453823 3.2424471 3.2915548 0.018568256 -0.047125681 -0.075463906 1 10 1 3.0665613e-07 7.1286852e-07 3.8891207e-07 89 -1 497.3931 
19.734107 3.4678025 0.3517037 0.00060297866 -0.0047916254 0.00070451564 0.5 -0.31919772 7.3243316 2.3723773 0.0059738989 -0.0085809917 -0.0065761198 1 10 2 8.6031304e-06 -1.0461996e-05 8.5653493e-06 80 -1 500.0001 1.3873248e-05 1.8110361e-05 -3.5248701e-05 221 -1 500.0001 
8.9593764 5.339063 0.60318598 0.0019898422 0.0055221023 0.0018505815 0.5 0.69743648 7.3025313 0.67177518 0.0071389941 -0.031339147 0.011080299 1 10 1 1.5241373e-07 7.1701898e-08 6.7461417e-08 233 -1 499.9905 
5.2903922 4.4770569 0.82365035 0.021631544 0.0047677737 0.0045771049 0.5 3.9079464 8.1740582 -6.5696747 0.020697937 0.066724306 -0.015898334 1 10 1 3.0663723e-07 3.4574704e-07 -4.3532598e-08 263 -1 490.2167 
11.141583 4.6749333 2.3270138 0.20268134 0.04268035 -0.062308797 0.5 7.0137731 40.034052 -6.1324321 -0.071725266 0.16330448 0.090964979 1 10 1 -1.8214106e-06 -1.0785572e-06 8.5807929e-07 297 -1 461.6923 
15.247003 9.4155594 0.73169093 0.025688012 0.0074836863 0.0086441668 0.5 2.5990533 7.4728159 -1.978135 0.011700627 0.084231897 -0.092118419 1 10 1 2.4330074e-05 -5.3973273e-05 -8.0498598e-06 61 -1 500.0001 
9.2357384 2.321299 0.73104511 0.0093147052 -0.0073636585 -0.002717681 0.5 1.4305708 8.2217279 1.3692438 0.001276957 0.013115692 -0.014663041 1 10 1 2.7690336e-05 -2.8780984e-07 1.492949e-07 310 -1 500.0001 
14.476253 9.4725486 1.3661641 0.056923537 0.025777195 0.043342402 0.5 5.0987533 24.086819 6.9059254 -0.075953659 0.0083583384 0.079124906 1 10 1 -4.5653204e-06 2.5125949e-05 -7.8027374e-06 343 -1 500.0001 
17.751367 6.2810343 1.5245858 0.072896812 -0.0087545429 -0.00033286903 0.5 1.9562865 8.185098 0.82562361 0.039957811 -0.099655097 -0.10015657 1 10 1 -1.4348915e-07 -7.9564085e-07 3.4613403e-06 307 -1 499.9679 