restart_version 3
name AngleOfReposeL0M0.5B0.5
xmin 0 xmax 20 ymin 0 ymax 20 zmin 0 zmax 20
dt 0.0001 t 1.0001 tmax 1 save_count_data 10000 save_count_ene 10000 save_count_stat 10000 save_count_fstat 10000
dim 3 gravity 0 0 -1
options_fstat 0 options_data 1 options_ene 1 options_restart 1
Species 1
k 200000 disp 25 kt 57142.857 dispt 25 mu 0.5 rho 1.9098593 dim_particle 3
Walls 1
InfiniteWall normal 0 0 -1 position -0
Boundaries 0
Particles 90
TSP BP 9.7766598 11.733683 2.303006 -0.099087015 0.01193788 -0.95104717 0.5 0.019705138 0.0099001754 0.0089064669 0.022753141 0.10629944 0.018518552 1 10 0 0
TSP BP 8.5364215 11.685776 0.50393395 0.0079127557 -0.051249221 0.42234351 0.5 0.33014007 0.14483724 -0.00058797887 -0.42659355 -0.40045005 -0.022602947 1 10 0 1 -8.346331e-05 5.0861528e-05 -0 0 0 0 0 0 0 -1 0 0.9911
TSP BP 7.9965751 9.1537738 3.8553375 0 0 -1.00005 0.5 0 0 0 0 0 0 1 10 0 0
TSP BP 8.1682939 10.325725 1.7136423 0 0 -1.00005 0.5 0 0 0 0 0 0 1 10 0 0
TSP BP 9.783049 11.47627 1.0152349 0.20749588 -0.45922507 -0.32320017 0.5 0.10911609 0.049302927 -2.0677614e-16 1.5360059 0.69402763 -3.0052346e-15 1 10 0 0
TSP BP 10.38546 8.19276 3.8758229 0 0 -1.00005 0.5 0 0 0 0 0 0 1 10 0 0
TSP BP 8.9353008 9.1347205 3.2877637 -0.032525135 0.021633029 -0.95788625 0.5 -0.05017011 -0.075430473 -1.6220366e-16 -0.071235335 -0.10710192 -2.3063527e-16 1 10 0 0
TSP BP 12.349196 9.726429 2.68934 0 0 -1.00005 0.5 0 0 0 0 0 0 1 10 0 0
TSP BP 8.4937109 11.857988 2.8589681 0 0 -1.00005 0.5 0 0 0 0 0 0 1 10 0 0
TSP BP 11.307782 10.794372 2.5137663 0.12211935 0.025266576 -0.76005324 0.5 0.063288855 0.14511012 -0.014901677 0.085651957 0.34416575 -0.051306721 1 10 0 0
TSP BP 9.5047248 9.050042 0.6434458 0 0 -1.00005 0.5 0 0 0 0 0 0 1 10 0 0
TSP BP 7.8897202 9.4175093 2.4501201 0.048621263 -0.0070073945 -0.75009393 0.5 0.0038690186 0.026845438 -3.2213094e-18 0.012192769 0.08460032 -1.0544537e-17 1 10 0 0
TSP BP 11.350359 11.207034 4.2699108 -0.021848253 -0.0021970971 -0.94174809 0.5 0.0025696672 -0.025553145 2.4109837e-17 0.0042090938 -0.041855841 3.9598055e-17 1 10 0 0
TSP BP 8.9414039 9.203181 4.5161801 0 0 -1.00005 0.5 0 0 0 0 0 0 1 10 0 0
TSP BP 10.556115 10.64101 3.4048245 0 0 -1.00005 0.5 0 0 0 0 0 0 1 10 0 0
TSP BP 11.919251 11.268026 0.56056342 0 0 -1.00005 0.5 0 0 0 0 0 0 1 10 0 0
TSP BP 11.410064 8.0847823 1.9240005 0.060664111 -0.37697896 -0.96743321 0.5 -0.092112297 -0.028229185 -0.065549076 -0.64364479 -0.11912208 -0.44744434 1 10 0 0
TSP BP 8.6608089 8.1208604 2.2022782 0 0 -1.00005 0.5 0 0 0 0 0 0 1 10 0 0
TSP BP 11.582994 9.8269107 3.8617194 0 0 -1.00005 0.5 0 0 0 0 0 0 1 10 0 0
TSP BP 12.050432 8.7181497 2.5284545 0 0 -1.00005 0.5 0 0 0 0 0 0 1 10 0 0
TSP BP 7.7528444 10.841675 4.7932343 -0.027149888 -0.1232574 -0.74215471 0.5 0.0046261064 -0.0015469256 -0.00025227649 0.26234039 -0.087717368 -0.014306245 1 10 0 0
TSP BP 10.629178 8.8514132 2.221951 0 0 -0.99975 0.5 0 0 0 0 0 0 1 10 0 0
TSP BP 9.7058227 10.587935 2.3635424 0 0 -0.99935 0.5 0 0 0 0 0 0 1 10 0 0
TSP BP 12.312953 9.949385 4.7030381 0 0 -0.99915 0.5 0 0 0 0 0 0 1 10 0 0
TSP BP 10.784386 8.9953581 4.7400548 0 0 -0.99885 0.5 0 0 0 0 0 0 1 10 0 0
TSP BP 8.6599466 10.10108 3.7925893 0 0 -0.99885 0.5 0 0 0 0 0 0 1 10 0 0
TSP BP 10.280054 10.470968 1.4219413 -0.022975698 0.12552984 -0.04593221 0.5 -0.017273369 -0.00037920577 0.001212618 -0.22145585 -0.0073788097 0.016211628 1 10 0 0
TSP BP 10.154937 11.747543 3.2641535 -0.001067775 -0.048323255 -0.93930134 0.5 -0.0081967883 0.088862103 0.001856801 -0.1473947 0.17978055 0.059119011 1 10 0 0
TSP BP 8.796623 11.455903 4.6014156 0.22072292 0.0068051522 -0.67826116 0.5 -0.0042457547 0.13770968 -1.18321e-16 -0.018706331 0.60673381 -5.2628104e-16 1 10 0 0
TSP BP 10.003545 11.168691 4.719008 0 0 -0.99865 0.5 0 0 0 0 0 0 1 10 0 0
TSP BP 10.994777 9.7373189 0.71609592 -0.22073761 0.11949834 -0.70574382 0.5 -0.14772569 -0.21148383 -0.033037681 -0.54747084 -0.91920336 0.31120307 1 10 0 0
TSP BP 10.920782 12.187756 4.4710079 0 0 -0.99815 0.5 0 0 0 0 0 0 1 10 0 0
TSP BP 8.4623367 8.9208277 1.3101819 0.14016586 0.55791484 0.14765787 0.5 -0.097890432 0.024593174 1.1364374e-16 -1.1795991 0.29635262 1.3768363e-15 1 10 0 0
TSP BP 12.455714 10.384413 0.58148878 0 0 0.70102909 0.5 0 0 0 0 0 0 1 10 0 1 0 0 0 0 0 0 0 0 0 -1 0 0.8921
TSP BP 11.303166 8.0058015 4.4817285 0 0 -0.99745 0.5 0 0 0 0 0 0 1 10 0 0
TSP BP 11.413895 10.485969 1.3210043 0.22649757 0.019842208 -0.46849622 0.5 -0.022043105 0.088941728 -0.067676713 -0.14848384 0.56136355 -0.22575321 1 10 0 0
TSP BP 8.5641674 8.2136864 4.7078561 0 0 -0.99695 0.5 0 0 0 0 0 0 1 10 0 0
TSP BP 12.426431 10.553869 3.7805877 0.0096877914 -0.0077129643 -0.98582988 0.5 0.0016811091 0.00078082102 -0.0010142018 0.019507972 0.0090608171 -0.011769032 1 10 0 0
TSP BP 11.800899 8.5923867 3.6225761 0 0 -0.99565 0.5 0 0 0 0 0 0 1 10 0 0
TSP BP 10.65635 12.155612 0.7681995 0 0 -0.99565 0.5 0 0 0 0 0 0 1 10 0 0
TSP BP 8.9828292 10.68553 0.89034955 0.1497372 -0.33595146 -0.5042669 0.5 0.35739928 0.15929672 -7.7981028e-16 1.1711692 0.52200277 -2.5675139e-15 1 10 0 1 4.762479e-05 -0.00010685132 -0.00021699825 0 0 0 0 0 0 1 -1 0.6976
TSP BP 9.7253182 8.0609476 0.96438829 0 0 -0.99485 0.5 0 0 0 0 0 0 1 10 0 0
TSP BP 10.770353 9.3660055 3.3604805 -0.076062674 -0.15497955 -0.51674495 0.5 0.091431179 -0.043913582 0.00031101849 0.3220964 -0.15470008 0.0010956817 1 10 0 0
TSP BP 9.4877213 12.435204 4.9281211 -0.010502863 0.0020321681 -0.93851546 0.5 -0.0027962084 -0.014451656 -1.8528581e-17 -0.003518439 -0.018184364 -2.3295021e-17 1 10 0 0
TSP BP 8.0261252 9.875262 0.61354853 0.29301696 0.30898813 -0.35993634 0.5 0.0011943871 -0.0013547027 -7.3926653e-05 0.69048488 -0.78312016 -0.042731178 1 10 0 0
TSP BP 9.5634084 7.5978434 2.4369862 0 0 -0.99305 0.5 0 0 0 0 0 0 1 10 0 0
TSP BP 11.883903 8.5421108 1.1572231 0.15719053 -0.24846815 -0.33088478 0.5 0.26536897 -0.030542802 -0.047355991 1.1829269 -0.23923694 -0.41286594 1 10 0 1 2.4728966e-05 -6.9606426e-05 -2.4589807e-05 0 0 0 0 0 0 16 -1 0.8793
TSP BP 9.9171509 9.5977521 2.4492129 0 0 -0.99195 0.5 0 0 0 0 0 0 1 10 0 0
TSP BP 8.7169626 11.795658 1.4835374 0.16819781 0.12646072 0.71614302 0.5 -0.0028260621 0.010090464 -0.00058797887 -0.29643008 0.70265045 -0.022602947 1 10 0 1 8.2077801e-06 7.0052737e-05 -9.2983921e-06 0 0 0 0 0 0 1 -1 0.9937
TSP BP 11.382829 11.961615 1.4331147 0 0 -0.99115 0.5 0 0 0 0 0 0 1 10 0 0
TSP BP 8.8286 10.556495 2.917005 0 0 -0.99025 0.5 0 0 0 0 0 0 1 10 0 0
TSP BP 7.6899949 10.427132 3.8363075 0 0 -0.98965 0.5 0 0 0 0 0 0 1 10 0 0
TSP BP 10.946906 7.7760811 0.95455364 0.071532144 -0.28646665 -0.59451043 0.5 0.055191292 0.01378154 4.617697e-17 0.99244699 0.24781894 8.4751117e-16 1 10 0 0
TSP BP 10.779198 10.740071 0.54417165 -0.086447874 0.21511173 -0.78737108 0.5 0.0080066313 -0.0036888277 0.011323429 0.10349838 -0.046803019 0.15007002 1 10 0 1 -4.0746657e-05 -3.0336141e-05 2.3428625e-05 0 0 0 0 0 0 35 -1 0.9273
TSP BP 7.7071974 10.940038 2.6741833 0 0 -0.98715 0.5 0 0 0 0 0 0 1 10 0 0
TSP BP 12.017271 8.5726817 4.9099771 0 0 -0.98615 0.5 0 0 0 0 0 0 1 10 0 0
TSP BP 11.012698 12.282279 2.4580599 0 0 -0.98615 0.5 0 0 0 0 0 0 1 10 0 0
TSP BP 10.67648 10.273818 4.8449059 0 0 -0.98515 0.5 0 0 0 0 0 0 1 10 0 0
TSP BP 9.3967481 12.331222 0.54158189 -0.20749588 0.45922507 -0.021079238 0.5 0.10911609 0.049302927 -2.0677614e-16 1.5360059 0.69402763 -3.0052346e-15 1 10 0 1 -7.0551244e-05 0.00015614238 0.00030129689 0 0 0 0 0 0 4 -1 0.9317
TSP BP 10.728893 8.6491654 0.50797024 0.012555463 -0.050281189 0.30326065 0.5 0.0065747487 0.0016417474 4.617697e-17 -0.68924924 -0.17210896 8.4751117e-16 1 10 0 1 -3.9226528e-05 0.0001570915 0 0 0 0 0 0 0 -1 0 0.9748
TSP BP 12.328457 10.480112 1.9140271 0 0 -0.98365 0.5 0 0 0 0 0 0 1 10 0 0
TSP BP 8.544202 8.2421464 3.5455404 0 0 -0.98125 0.5 0 0 0 0 0 0 1 10 0 0
TSP BP 9.2562183 11.350611 3.4767988 0 0 -0.98075 0.5 0 0 0 0 0 0 1 10 0 0
TSP BP 9.1714177 10.275476 4.9602455 0 0 -0.97545 0.5 0 0 0 0 0 0 1 10 0 0
TSP BP 11.674418 9.5174292 1.5597036 0 0 -0.97395 0.5 0 0 0 0 0 0 1 10 0 0
TSP BP 10.094996 7.7013515 4.9883971 0 0 -0.97235 0.5 0 0 0 0 0 0 1 10 0 0
TSP BP 11.850452 11.662366 2.3887962 0 0 -0.96865 0.5 0 0 0 0 0 0 1 10 0 0
TSP BP 9.3060634 9.9794238 1.559395 0 0 -0.96765 0.5 0 0 0 0 0 0 1 10 0 0
TSP BP 9.8402984 9.0590829 4.0892515 0.00028192247 -0.037315568 -0.93522605 0.5 0.071712277 0.0005417927 -3.1958733e-17 0.1096182 0.00082817538 -4.8983401e-17 1 10 0 0
TSP BP 10.940686 7.9130681 2.7960195 -0.28204856 -0.081956818 -0.48169726 0.5 0.00084798747 0.0012823444 0.00071529532 0.067161997 0.10157513 0.056651732 1 10 0 1 5.1532976e-06 -4.5843722e-06 1.846399e-06 0 0 0 0 0 0 16 -1 0.9904
TSP BP 8.2968074 8.2619563 0.52001071 -0.049364562 -0.19649023 0.29052017 0.5 0.02102879 -0.0052830975 1.1364374e-16 0.62517335 -0.15706333 1.3768363e-15 1 10 0 1 -1.8485698e-05 -7.3580295e-05 0 0 0 0 0 0 0 -1 0 0.9378
TSP BP 7.7301851 11.002857 0.49798935 0 0 0.077720691 0.5 0 0 0 0 0 0 1 10 0 1 0 0 0 0 0 0 0 0 0 -1 0 1.0001
TSP BP 7.711138 9.6998553 4.8171964 0 0 -0.94325 0.5 0 0 0 0 0 0 1 10 0 0
TSP BP 9.7539107 12.38851 3.932835 -0.0017069147 0.055092187 -0.87291701 0.5 -0.017860122 -0.031013888 0.0066759 -0.17489728 -0.20660889 0.075950199 1 10 0 1 -3.9410797e-05 1.8956972e-05 -4.1908625e-05 0 0 0 0 0 0 27 -1 0.9148
TSP BP 9.9786522 10.0152 0.51909227 -0.13596149 -0.2012377 -0.71115195 0.5 -0.030627657 0.02105957 -0.00012624222 -0.39648216 0.27264048 -0.0016441356 1 10 0 1 -4.4890833e-05 -6.2441514e-05 4.6984536e-05 0 0 0 0 0 0 26 -1 0.9255
TSP BP 11.849356 11.257961 3.363901 0.012160462 0.0099100614 -0.99387203 0.5 0.0042507764 -0.024772324 -0.0010142018 0.023717066 -0.032795023 -0.011769032 1 10 0 1 9.0552755e-07 2.9998203e-06 3.8099309e-06 0 0 0 0 0 0 37 -1 0.9166
TSP BP 10.427724 7.6730222 1.8552058 0 0 -0.92055 0.5 0 0 0 0 0 0 1 10 0 0
TSP BP 10.280644 9.399478 1.3509862 -0.25972528 -0.0018748826 -0.79538317 0.5 0.017628489 0.033482541 0.037289801 0.20273213 0.38505804 0.42884229 1 10 0 1 7.2191118e-05 -7.9832176e-05 3.7544985e-05 0 0 0 0 0 0 30 -1 0.9158
TSP BP 11.908246 9.3738188 0.50468614 0.16235854 0.043648437 0.50732644 0.5 -0.0037961438 0.12363564 0.02624218 -0.71044154 0.35152568 0.33155838 1 10 0 1 3.7105879e-06 8.6986858e-05 0 0 0 0 0 0 0 -1 0 0.9909
TSP BP 12.082262 11.341979 5.0339894 0 0 -0.89555 0.5 0 0 0 0 0 0 1 10 0 0
TSP BP 9.4810927 12.452173 1.6509665 -0.02195803 0.04740328 -0.92881487 0.5 0.060953767 0.028234853 -1.4244956e-16 0.12268961 0.056831976 -2.874505e-16 1 10 0 1 -6.5166077e-06 1.4068137e-05 1.850858e-05 0 0 0 0 0 0 0 -1 0.506
TSP BP 9.7604499 8.5858996 2.9860426 0.032525135 -0.021633029 -0.88691375 0.5 -0.05017011 -0.075430473 -1.6220366e-16 -0.071235335 -0.10710192 -2.3063527e-16 1 10 0 1 3.993792e-06 -2.6563401e-06 1.27741e-05 0 0 0 0 0 0 6 -1 0.2984
TSP BP 9.5861097 8.7865717 1.8747077 0 0 -0.83735 0.5 0 0 0 0 0 0 1 10 0 0
TSP BP 9.3680807 7.8226976 4.1669747 0 0 -0.77855 0.5 0 0 0 0 0 0 1 10 0 0
TSP BP 9.8325887 10.079542 3.9408386 -0.00028192247 0.037315568 -0.80147395 0.5 0.071712277 0.0005417927 -3.1958733e-17 0.1096182 0.00082817538 -4.8983401e-17 1 10 0 1 2.2369589e-08 -2.9608634e-06 -1.2215775e-05 0 0 0 0 0 0 68 -1 0.3485
TSP BP 7.602977 9.4583042 1.4163459 -0.34163822 -0.30198074 -0.042487678 0.5 0.0050634057 0.025490735 -7.3926653e-05 0.70267765 -0.69851984 -0.042731178 1 10 0 1 -0.00054546554 -0.00045250405 -0.00052253265 0 0 0 0 0 0 44 -1 1.0001
TSP BP 10.661497 11.367822 1.8803624 0.034938817 0.022773325 -0.92767228 0.5 0.068992265 0.0042568573 0.013725566 0.13916513 -0.031147137 0.03534974 1 10 0 1 2.8635827e-05 -4.3524993e-06 6.1357027e-05 0 0 0 0 0 0 0 -1 0.6145
TSP BP 9.8404433 9.0204856 5.3753294 0 0 -0.47925 0.5 0 0 0 0 0 0 1 10 0 0
TSP BP 11.012738 9.8432374 2.3684381 0.053327109 0.038797387 -0.90498369 0.5 0.037612014 -0.026819336 -0.014590659 0.14466261 -0.098124803 -0.050211039 1 10 0 1 3.7669658e-07 -3.1879589e-06 2.7105469e-05 0 0 0 0 0 0 9 -1 0.7454
TSP BP 7.9019476 11.43044 3.9938966 -0.19357303 0.11645225 -0.92893412 0.5 0.00038035173 0.13616276 -0.00025227649 0.24363405 0.51901644 -0.014306245 1 10 0 1 1.300593e-05 3.4451564e-05 2.7785133e-05 0 0 0 0 0 0 20 -1 0.9853
NUM_BUCKETS 16384 HGRID_MAX_LEVELS 3 MIN_CELL_SIZE 1 SPHERE_TO_CELL_RATIO 1 CELL_TO_CELL_RATIO 2
FixedParticleRadius 0 MinInflowParticleRadius 0.5 MaxInflowParticleRadius 0.5
RandomizedBottom 2 ChuteAngle 0 max_failed 1 num_created 90
InflowVelocity 0.1 InflowVelocityVariance 0 InflowHeight 20
0.01 0.01 0.08 1.0471976 0.04 0 
