restart_version 3
name H4A24L0M0.5B0.5
xmin 0 xmax 20 ymin 0 ymax 10 zmin 0 zmax 4.8
dt 0.0001 t 0 tmax 0.0001 save_count_data 10000 save_count_ene 10000 save_count_stat 10000 save_count_fstat 10000
dim 3 gravity 0.40673664 0 -0.91354546
options_fstat 0 options_data 0 options_ene 1 options_restart 1
Species 1
k 200000 disp 25 kt 57142.857 dispt 25 mu 0.5 rho 1.9098593 dim_particle 3
Walls 1
InfiniteWall normal 0 0 -1 position 0
Boundaries 2
PeriodicBoundary normal 1 0 0 position_left 0 position_right 20 shift 20 0 0
PeriodicBoundary normal 0 1 0 position_left 0 position_right 10 shift 0 10 0
Particles 800
TSP BP 9.7935422 5.0639592 3.5428637 0 0 0 0.5 0 0 0 0 0 0 1 10 0 0
TSP BP 5.1024009 1.3787775 3.6594904 0 0 0 0.5 0 0 0 0 0 0 1 10 0 0
TSP BP 2.8869853 7.9396975 1.6511835 0 0 0 0.5 0 0 0 0 0 0 1 10 0 0
TSP BP 3.5395169 4.0846462 2.7871634 0 0 0 0.5 0 0 0 0 0 0 1 10 0 0
TSP BP 2.3815691 4.4866027 2.2862658 0 0 0 0.5 0 0 0 0 0 0 1 10 0 0
TSP BP 9.6196332 2.7410015 3.4092273 0 0 0 0.5 0 0 0 0 0 0 1 10 0 0
TSP BP 11.964748 7.9765712 1.4025326 0 0 0 0.5 0 0 0 0 0 0 1 10 0 0
TSP BP 6.5411901 6.8646129 1.9188249 0 0 0 0.5 0 0 0 0 0 0 1 10 0 0
TSP BP 9.7092296 7.4017141 1.5388786 0 0 0 0.5 0 0 0 0 0 0 1 10 0 0
TSP BP 19.426945 5.8409021 2.0201341 0 0 0 0.5 0 0 0 0 0 0 1 10 0 0
TSP BP 4.7761014 6.1462326 3.896796 0 0 0 0.5 0 0 0 0 0 0 1 10 0 0
TSP BP 15.277095 5.3458182 3.0564927 0 0 0 0.5 0 0 0 0 0 0 1 10 0 0
TSP BP 8.6179543 2.1582924 1.9184997 0 0 0 0.5 0 0 0 0 0 0 1 10 0 0
TSP BP 15.682008 8.6218994 3.365092 0 0 0 0.5 0 0 0 0 0 0 1 10 0 0
TSP BP 6.4773347 9.1292143 1.9722777 0 0 0 0.5 0 0 0 0 0 0 1 10 0 0
TSP BP 12.613236 7.1287742 2.8945213 0 0 0 0.5 0 0 0 0 0 0 1 10 0 0
TSP BP 17.793152 2.0091042 3.6873182 0 0 0 0.5 0 0 0 0 0 0 1 10 0 0
TSP BP 15.957492 4.350227 1.1399464 0 0 0 0.5 0 0 0 0 0 0 1 10 0 0
TSP BP 5.4110738 4.9641908 1.1647912 0 0 0 0.5 0 0 0 0 0 0 1 10 0 0
TSP BP 5.3646315 3.2090333 1.2877761 0 0 0 0.5 0 0 0 0 0 0 1 10 0 0
TSP BP 16.515379 7.951185 2.3658432 0 0 0 0.5 0 0 0 0 0 0 1 10 0 0
TSP BP 18.29164 5.5513082 1.1556772 0 0 0 0.5 0 0 0 0 0 0 1 10 0 0
TSP BP 7.2057578 1.3183815 1.7708556 0 0 0 0.5 0 0 0 0 0 0 1 10 0 0
TSP BP 2.8543448 5.378501 3.1502379 0 0 0 0.5 0 0 0 0 0 0 1 10 0 0
TSP BP 10.287602 7.2186731 2.448059 0 0 0 0.5 0 0 0 0 0 0 1 10 0 0
TSP BP 9.2510232 3.5286312 2.007592 0 0 0 0.5 0 0 0 0 0 0 1 10 0 0
TSP BP 8.6342961 1.8995676 3.3677923 0 0 0 0.5 0 0 0 0 0 0 1 10 0 0
TSP BP 5.8643712 5.4740357 2.2929173 0 0 0 0.5 0 0 0 0 0 0 1 10 0 0
TSP BP 1.96259 9.6192896 3.6543701 0 0 0 0.5 0 0 0 0 0 0 1 10 0 0
TSP BP 12.890876 4.9990619 1.7879546 0 0 0 0.5 0 0 0 0 0 0 1 10 0 0
TSP BP 17.811989 8.4187783 3.9541305 0 0 0 0.5 0 0 0 0 0 0 1 10 0 0
TSP BP 2.7315138 5.0030066 1.1053173 0 0 0 0.5 0 0 0 0 0 0 1 10 0 0
TSP BP 17.060203 4.8938819 1.5464887 0 0 0 0.5 0 0 0 0 0 0 1 10 0 0
TSP BP 7.7999641 4.5763478 1.5453163 0 0 0 0.5 0 0 0 0 0 0 1 10 0 0
TSP BP 2.9447637 8.4918887 3.6537847 0 0 0 0.5 0 0 0 0 0 0 1 10 0 0
TSP BP 10.918369 4.1179852 1.679242 0 0 0 0.5 0 0 0 0 0 0 1 10 0 0
TSP BP 18.318696 7.6433409 2.6785369 0 0 0 0.5 0 0 0 0 0 0 1 10 0 0
TSP BP 19.289223 9.4639393 2.4201946 0 0 0 0.5 0 0 0 0 0 0 1 10 0 0
TSP BP 9.2982225 6.3738839 2.7272978 0 0 0 0.5 0 0 0 0 0 0 1 10 0 0
TSP BP 1.4913637 8.0199091 3.5109297 0 0 0 0.5 0 0 0 0 0 0 1 10 0 0
TSP BP 2.1160316 3.2700321 2.5811809 0 0 0 0.5 0 0 0 0 0 0 1 10 0 0
TSP BP 13.109705 6.1056427 1.8106716 0 0 0 0.5 0 0 0 0 0 0 1 10 0 0
TSP BP 13.480668 9.5300298 1.8653165 0 0 0 0.5 0 0 0 0 0 0 1 10 0 0
TSP BP 5.4077971 7.8245919 2.5721284 0 0 0 0.5 0 0 0 0 0 0 1 10 0 0
TSP BP 11.570373 3.4259533 2.7788559 0 0 0 0.5 0 0 0 0 0 0 1 10 0 0
TSP BP 11.339897 9.2921275 1.5812442 0 0 0 0.5 0 0 0 0 0 0 1 10 0 0
TSP BP 7.9903648 5.8953799 2.6197255 0 0 0 0.5 0 0 0 0 0 0 1 10 0 0
TSP BP 11.099148 6.801817 3.5525868 0 0 0 0.5 0 0 0 0 0 0 1 10 0 0
TSP BP 5.7369349 9.1494148 3.5089961 0 0 0 0.5 0 0 0 0 0 0 1 10 0 0
TSP BP 1.0717343 3.3994825 1.1418685 0 0 0 0.5 0 0 0 0 0 0 1 10 0 0
TSP BP 4.0119421 9.7365658 3.9093526 0 0 0 0.5 0 0 0 0 0 0 1 10 0 0
TSP BP 10.51347 9.491786 3.2016186 0 0 0 0.5 0 0 0 0 0 0 1 10 0 0
TSP BP 3.9257136 1.9362524 3.1909387 0 0 0 0.5 0 0 0 0 0 0 1 10 0 0
TSP BP 8.9482652 7.1741043 3.3967509 0 0 0 0.5 0 0 0 0 0 0 1 10 0 0
TSP BP 14.53158 2.1520933 2.3188126 0 0 0 0.5 0 0 0 0 0 0 1 10 0 0
TSP BP 15.778746 5.8658017 2.0280378 0 0 0 0.5 0 0 0 0 0 0 1 10 0 0
TSP BP 13.998971 9.0444872 3.91283 0 0 0 0.5 0 0 0 0 0 0 1 10 0 0
TSP BP 1.3748071 9.8924774 2.3580416 0 0 0 0.5 0 0 0 0 0 0 1 10 0 0
TSP BP 16.03403 5.2360762 3.7664454 0 0 0 0.5 0 0 0 0 0 0 1 10 0 0
TSP BP 10.873961 5.5321736 3.9635561 0 0 0 0.5 0 0 0 0 0 0 1 10 0 0
TSP BP 15.166893 7.4611248 1.1673319 0 0 0 0.5 0 0 0 0 0 0 1 10 0 0
TSP BP 1.1064538 6.0195499 3.0951485 0 0 0 0.5 0 0 0 0 0 0 1 10 0 0
TSP BP 19.831714 1.7013749 3.7319399 0 0 0 0.5 0 0 0 0 0 0 1 10 0 0
TSP BP 12.326454 2.6486492 3.7372087 0 0 0 0.5 0 0 0 0 0 0 1 10 0 0
TSP BP 7.2993302 1.6482655 3.0750717 0 0 0 0.5 0 0 0 0 0 0 1 10 0 0
TSP BP 4.4876762 9.7200872 2.355923 0 0 0 0.5 0 0 0 0 0 0 1 10 0 0
TSP BP 11.484577 8.8409467 3.5411293 0 0 0 0.5 0 0 0 0 0 0 1 10 0 0
TSP BP 8.4537839 5.540611 1.631205 0 0 0 0.5 0 0 0 0 0 0 1 10 0 0
TSP BP 15.452029 9.0625272 1.0979715 0 0 0 0.5 0 0 0 0 0 0 1 10 0 0
TSP BP 9.168348 3.9610449 3.8149203 0 0 0 0.5 0 0 0 0 0 0 1 10 0 0
TSP BP 11.832591 6.5887478 1.4482431 0 0 0 0.5 0 0 0 0 0 0 1 10 0 0
TSP BP 18.398798 7.4754569 3.8729657 0 0 0 0.5 0 0 0 0 0 0 1 10 0 0
TSP BP 14.836597 1.0811523 3.4051294 0 0 0 0.5 0 0 0 0 0 0 1 10 0 0
TSP BP 15.818358 3.2627794 2.8353545 0 0 0 0.5 0 0 0 0 0 0 1 10 0 0
TSP BP 19.874729 3.0692074 3.5484786 0 0 0 0.5 0 0 0 0 0 0 1 10 0 0
TSP BP 14.240231 8.7696395 1.8067576 0 0 0 0.5 0 0 0 0 0 0 1 10 0 0
TSP BP 5.0438362 9.4686593 1.1908392 0 0 0 0.5 0 0 0 0 0 0 1 10 0 0
TSP BP 18.776611 3.7841267 3.4150857 0 0 0 0.5 0 0 0 0 0 0 1 10 0 0
TSP BP 3.1277836 2.2011622 2.0071067 0 0 0 0.5 0 0 0 0 0 0 1 10 0 0
TSP BP 1.2771553 5.4753067 1.3651618 0 0 0 0.5 0 0 0 0 0 0 1 10 0 0
TSP BP 8.2414672 5.7370577 3.7153075 0 0 0 0.5 0 0 0 0 0 0 1 10 0 0
TSP BP 19.827447 1.3105161 1.797134 0 0 0 0.5 0 0 0 0 0 0 1 10 0 0
TSP BP 8.3664755 4.7187257 3.5892831 0 0 0 0.5 0 0 0 0 0 0 1 10 0 0
TSP BP 10.67313 1.7839897 3.6753672 0 0 0 0.5 0 0 0 0 0 0 1 10 0 0
TSP BP 3.3134129 3.7229713 1.2083966 0 0 0 0.5 0 0 0 0 0 0 1 10 0 0
TSP BP 8.7198084 8.5896995 2.1987063 0 0 0 0.5 0 0 0 0 0 0 1 10 0 0
TSP BP 19.71727 7.7962143 3.8760367 0 0 0 0.5 0 0 0 0 0 0 1 10 0 0
TSP BP 18.019118 3.8279584 1.1741609 0 0 0 0.5 0 0 0 0 0 0 1 10 0 0
TSP BP 5.6887221 5.6223893 3.2821555 0 0 0 0.5 0 0 0 0 0 0 1 10 0 0
TSP BP 17.343417 7.512824 1.2825591 0 0 0 0.5 0 0 0 0 0 0 1 10 0 0
TSP BP 2.8131031 7.4501802 2.5778167 0 0 0 0.5 0 0 0 0 0 0 1 10 0 0
TSP BP 5.0753355 2.2867202 3.2097011 0 0 0 0.5 0 0 0 0 0 0 1 10 0 0
TSP BP 7.8462919 2.9414507 2.2113908 0 0 0 0.5 0 0 0 0 0 0 1 10 0 0
TSP BP 2.074834 7.2383093 1.3223236 0 0 0 0.5 0 0 0 0 0 0 1 10 0 0
TSP BP 7.7013357 6.3066799 1.2746288 0 0 0 0.5 0 0 0 0 0 0 1 10 0 0
TSP BP 18.684217 8.764925 1.0215996 0 0 0 0.5 0 0 0 0 0 0 1 10 0 0
TSP BP 6.4611456 2.3244246 3.0240301 0 0 0 0.5 0 0 0 0 0 0 1 10 0 0
TSP BP 4.9295062 3.4653574 3.1286746 0 0 0 0.5 0 0 0 0 0 0 1 10 0 0
TSP BP 16.114369 1.9249825 1.6515106 0 0 0 0.5 0 0 0 0 0 0 1 10 0 0
TSP BP 4.1926221 6.6519328 1.3063352 0 0 0 0.5 0 0 0 0 0 0 1 10 0 0
TSP BP 10.14549 5.2871358 1.4429849 0 0 0 0.5 0 0 0 0 0 0 1 10 0 0
TSP BP 14.10142 2.8738361 3.1440858 0 0 0 0.5 0 0 0 0 0 0 1 10 0 0
TSP BP 9.4562092 2.7266528 1.3297729 0 0 0 0.5 0 0 0 0 0 0 1 10 0 0
TSP BP 7.1508331 8.7228532 3.5737974 0 0 0 0.5 0 0 0 0 0 0 1 10 0 0
TSP BP 19.381857 7.4838067 1.9980934 0 0 0 0.5 0 0 0 0 0 0 1 10 0 0
TSP BP 18.430068 7.5360859 1.249343 0 0 0 0.5 0 0 0 0 0 0 1 10 0 0
TSP BP 15.920265 7.6247167 3.7651637 0 0 0 0.5 0 0 0 0 0 0 1 10 0 0
TSP BP 12.247595 9.997856 1.6933821 0 0 0 0.5 0 0 0 0 0 0 1 10 0 0
TSP BP 3.4989167 8.6296922 2.3679207 0 0 0 0.5 0 0 0 0 0 0 1 10 0 0
TSP BP 14.159252 7.080372 3.1523556 0 0 0 0.5 0 0 0 0 0 0 1 10 0 0
TSP BP 1.1856404 6.9933815 1.8005558 0 0 0 0.5 0 0 0 0 0 0 1 10 0 0
TSP BP 3.4215126 9.3752224 1.4190384 0 0 0 0.5 0 0 0 0 0 0 1 10 0 0
TSP BP 7.7274625 9.0941289 2.450079 0 0 0 0.5 0 0 0 0 0 0 1 10 0 0
TSP BP 8.5850363 9.7803602 3.994294 0 0 0 0.5 0 0 0 0 0 0 1 10 0 0
TSP BP 16.519301 9.2316909 2.0737553 0 0 0 0.5 0 0 0 0 0 0 1 10 0 0
TSP BP 4.7459678 7.2062336 3.1400675 0 0 0 0.5 0 0 0 0 0 0 1 10 0 0
TSP BP 16.186449 6.6792779 1.4886261 0 0 0 0.5 0 0 0 0 0 0 1 10 0 0
TSP BP 10.839726 2.063455 1.5188703 0 0 0 0.5 0 0 0 0 0 0 1 10 0 0
TSP BP 15.103521 2.9034956 1.3871005 0 0 0 0.5 0 0 0 0 0 0 1 10 0 0
TSP BP 14.185448 9.6303899 2.8430137 0 0 0 0.5 0 0 0 0 0 0 1 10 0 0
TSP BP 16.732249 5.2428037 2.7465035 0 0 0 0.5 0 0 0 0 0 0 1 10 0 0
TSP BP 7.0568376 7.9638049 1.5049987 0 0 0 0.5 0 0 0 0 0 0 1 10 0 0
TSP BP 18.458767 9.5599928 3.1103771 0 0 0 0.5 0 0 0 0 0 0 1 10 0 0
TSP BP 14.166708 3.3133164 1.214214 0 0 0 0.5 0 0 0 0 0 0 1 10 0 0
TSP BP 16.414958 9.4649901 3.5330739 0 0 0 0.5 0 0 0 0 0 0 1 10 0 0
TSP BP 1.3930046 2.0204036 1.6246991 0 0 0 0.5 0 0 0 0 0 0 1 10 0 0
TSP BP 17.594212 2.7812212 1.2527901 0 0 0 0.5 0 0 0 0 0 0 1 10 0 0
TSP BP 19.20552 3.3259567 1.6616051 0 0 0 0.5 0 0 0 0 0 0 1 10 0 0
TSP BP 12.829438 4.1291089 2.37246 0 0 0 0.5 0 0 0 0 0 0 1 10 0 0
TSP BP 8.4571592 8.4653135 3.7734775 0 0 0 0.5 0 0 0 0 0 0 1 10 0 0
TSP BP 14.122867 7.0663991 1.3814555 0 0 0 0.5 0 0 0 0 0 0 1 10 0 0
TSP BP 12.00188 8.5716136 2.3212802 0 0 0 0.5 0 0 0 0 0 0 1 10 0 0
TSP BP 14.676008 4.2441656 1.6446351 0 0 0 0.5 0 0 0 0 0 0 1 10 0 0
TSP BP 10.810138 7.2352133 1.5842222 0 0 0 0.5 0 0 0 0 0 0 1 10 0 0
TSP BP 3.0487391 6.1800165 2.2195183 0 0 0 0.5 0 0 0 0 0 0 1 10 0 0
TSP BP 12.337634 5.5947988 1.162239 0 0 0 0.5 0 0 0 0 0 0 1 10 0 0
TSP BP 15.754751 3.563747 3.9178174 0 0 0 0.5 0 0 0 0 0 0 1 10 0 0
TSP BP 1.2098395 2.4408195 2.9387761 0 0 0 0.5 0 0 0 0 0 0 1 10 0 0
TSP BP 14.528486 3.7057317 3.7891834 0 0 0 0.5 0 0 0 0 0 0 1 10 0 0
TSP BP 11.172271 5.2515785 1.3977642 0 0 0 0.5 0 0 0 0 0 0 1 10 0 0
TSP BP 11.766053 5.1014963 2.5505467 0 0 0 0.5 0 0 0 0 0 0 1 10 0 0
TSP BP 6.7074107 3.5092625 2.7680157 0 0 0 0.5 0 0 0 0 0 0 1 10 0 0
TSP BP 6.9125474 9.6881333 3.285377 0 0 0 0.5 0 0 0 0 0 0 1 10 0 0
TSP BP 17.94846 5.2930609 2.1284043 0 0 0 0.5 0 0 0 0 0 0 1 10 0 0
TSP BP 2.0406515 1.7002243 3.4623184 0 0 0 0.5 0 0 0 0 0 0 1 10 0 0
TSP BP 12.071979 4.5773679 3.367266 0 0 0 0.5 0 0 0 0 0 0 1 10 0 0
TSP BP 17.157194 2.3247885 2.9620576 0 0 0 0.5 0 0 0 0 0 0 1 10 0 0
TSP BP 10.05902 4.2834016 1.0317761 0 0 0 0.5 0 0 0 0 0 0 1 10 0 0
TSP BP 12.616675 1.7082598 2.6948474 0 0 0 0.5 0 0 0 0 0 0 1 10 0 0
TSP BP 17.330603 6.1441271 3.3334901 0 0 0 0.5 0 0 0 0 0 0 1 10 0 0
TSP BP 6.3615098 8.2211195 2.6004908 0 0 0 0.5 0 0 0 0 0 0 1 10 0 0
TSP BP 3.0240957 1.080538 2.7913678 0 0 0 0.5 0 0 0 0 0 0 1 10 0 0
TSP BP 3.7094258 4.8398992 1.24285 0 0 0 0.5 0 0 0 0 0 0 1 10 0 0
TSP BP 5.5852247 8.7433441 1.6700143 0 0 0 0.5 0 0 0 0 0 0 1 10 0 0
TSP BP 2.3016098 6.5651478 3.597541 0 0 0 0.5 0 0 0 0 0 0 1 10 0 0
TSP BP 9.4563062 4.5508653 1.868724 0 0 0 0.5 0 0 0 0 0 0 1 10 0 0
TSP BP 12.763227 2.2299543 1.0851505 0 0 0 0.5 0 0 0 0 0 0 1 10 0 0
TSP BP 13.31511 5.8352256 3.820044 0 0 0 0.5 0 0 0 0 0 0 1 10 0 0
TSP BP 13.485094 1.2177277 2.9623938 0 0 0 0.5 0 0 0 0 0 0 1 10 0 0
TSP BP 5.1417865 4.6760816 2.2022581 0 0 0 0.5 0 0 0 0 0 0 1 10 0 0
TSP BP 17.713049 9.4313242 3.8075006 0 0 0 0.5 0 0 0 0 0 0 1 10 0 0
TSP BP 6.4875862 4.2704134 3.9587309 0 0 0 0.5 0 0 0 0 0 0 1 10 0 0
TSP BP 15.022879 9.5324001 3.5341664 0 0 0 0.5 0 0 0 0 0 0 1 10 0 0
TSP BP 6.6123222 5.0563935 1.5524559 0 0 0 0.5 0 0 0 0 0 0 1 10 0 0
TSP BP 18.594103 6.5303305 2.694104 0 0 0 0.5 0 0 0 0 0 0 1 10 0 0
TSP BP 13.130218 2.8862502 2.5704501 0 0 0 0.5 0 0 0 0 0 0 1 10 0 0
TSP BP 18.785528 1.2731744 2.2754118 0 0 0 0.5 0 0 0 0 0 0 1 10 0 0
TSP BP 7.7978009 7.8673193 2.8349541 0 0 0 0.5 0 0 0 0 0 0 1 10 0 0
TSP BP 3.3533706 9.7308663 2.5270656 0 0 0 0.5 0 0 0 0 0 0 1 10 0 0
TSP BP 18.165631 9.8132014 1.0503016 0 0 0 0.5 0 0 0 0 0 0 1 10 0 0
TSP BP 14.348252 5.3997504 4.0066959 0 0 0 0.5 0 0 0 0 0 0 1 10 0 0
TSP BP 2.9886942 1.2485273 3.9160315 0 0 0 0.5 0 0 0 0 0 0 1 10 0 0
TSP BP 4.8797856 2.1082993 1.5627126 0 0 0 0.5 0 0 0 0 0 0 1 10 0 0
TSP BP 13.119659 7.6811762 1.2732477 0 0 0 0.5 0 0 0 0 0 0 1 10 0 0
TSP BP 11.655649 1.2661518 2.4025326 0 0 0 0.5 0 0 0 0 0 0 1 10 0 0
TSP BP 19.055613 2.8662814 2.7116565 0 0 0 0.5 0 0 0 0 0 0 1 10 0 0
TSP BP 17.262554 9.9160935 2.5177649 0 0 0 0.5 0 0 0 0 0 0 1 10 0 0
TSP BP 8.0501838 7.2136136 3.9048288 0 0 0 0.5 0 0 0 0 0 0 1 10 0 0
TSP BP 2.9772444 1.7911792 1.0304516 0 0 0 0.5 0 0 0 0 0 0 1 10 0 0
TSP BP 13.704162 1.8474915 3.721771 0 0 0 0.5 0 0 0 0 0 0 1 10 0 0
TSP BP 16.030251 2.3893695 3.6993277 0 0 0 0.5 0 0 0 0 0 0 1 10 0 0
TSP BP 15.816834 1.0736102 2.0836396 0 0 0 0.5 0 0 0 0 0 0 1 10 0 0
TSP BP 12.566721 9.9508818 2.6821956 0 0 0 0.5 0 0 0 0 0 0 1 10 0 0
TSP BP 18.531232 1.7088165 1.3229093 0 0 0 0.5 0 0 0 0 0 0 1 10 0 0
TSP BP 4.3816546 1.1498922 2.3598285 0 0 0 0.5 0 0 0 0 0 0 1 10 0 0
TSP BP 14.151591 4.9771765 1.0391525 0 0 0 0.5 0 0 0 0 0 0 1 10 0 0
TSP BP 13.275655 1.0303096 1.6510009 0 0 0 0.5 0 0 0 0 0 0 1 10 0 0
TSP BP 12.816536 3.7096445 3.5907512 0 0 0 0.5 0 0 0 0 0 0 1 10 0 0
TSP BP 19.654156 9.0392444 1.4998059 0 0 0 0.5 0 0 0 0 0 0 1 10 0 0
TSP BP 10.696387 6.2643679 2.5524337 0 0 0 0.5 0 0 0 0 0 0 1 10 0 0
TSP BP 6.506626 2.8591715 1.7846745 0 0 0 0.5 0 0 0 0 0 0 1 10 0 0
TSP BP 11.513353 2.9204691 1.7412653 0 0 0 0.5 0 0 0 0 0 0 1 10 0 0
TSP BP 6.1669288 3.8336954 1.3174272 0 0 0 0.5 0 0 0 0 0 0 1 10 0 0
TSP BP 6.6876822 5.1251551 3.4625575 0 0 0 0.5 0 0 0 0 0 0 1 10 0 0
TSP BP 3.2161411 7.3088613 3.675055 0 0 0 0.5 0 0 0 0 0 0 1 10 0 0
TSP BP 4.9679678 7.3485391 1.2035057 0 0 0 0.5 0 0 0 0 0 0 1 10 0 0
TSP BP 7.5184564 4.825121 2.8882719 0 0 0 0.5 0 0 0 0 0 0 1 10 0 0
TSP BP 7.2259004 3.604089 1.6073849 0 0 0 0.5 0 0 0 0 0 0 1 10 0 0
TSP BP 10.004604 8.7072625 2.1659502 0 0 0 0.5 0 0 0 0 0 0 1 10 0 0
TSP BP 8.2891046 1.1301865 1.4539494 0 0 0 0.5 0 0 0 0 0 0 1 10 0 0
TSP BP 5.9218676 1.5681461 2.3490518 0 0 0 0.5 0 0 0 0 0 0 1 10 0 0
TSP BP 4.5206344 5.8405278 2.4392629 0 0 0 0.5 0 0 0 0 0 0 1 10 0 0
TSP BP 19.89298 6.6225003 3.8332263 0 0 0 0.5 0 0 0 0 0 0 1 10 0 0
TSP BP 3.0207518 3.6177694 3.7648897 0 0 0 0.5 0 0 0 0 0 0 1 10 0 0
TSP BP 8.5284539 7.0926073 2.4724712 0 0 0 0.5 0 0 0 0 0 0 1 10 0 0
TSP BP 10.593784 3.0453835 1.0434597 0 0 0 0.5 0 0 0 0 0 0 1 10 0 0
TSP BP 9.7439906 6.4797804 1.1237379 0 0 0 0.5 0 0 0 0 0 0 1 10 0 0
TSP BP 19.273596 5.3627277 3.8767317 0 0 0 0.5 0 0 0 0 0 0 1 10 0 0
TSP BP 2.2431373 4.348563 3.4874892 0 0 0 0.5 0 0 0 0 0 0 1 10 0 0
TSP BP 9.3757789 9.3166078 2.801442 0 0 0 0.5 0 0 0 0 0 0 1 10 0 0
TSP BP 18.858018 6.5451082 3.8237035 0 0 0 0.5 0 0 0 0 0 0 1 10 0 0
TSP BP 17.188368 3.5289343 2.9373916 0 0 0 0.5 0 0 0 0 0 0 1 10 0 0
TSP BP 6.5939005 7.5226325 3.3572167 0 0 0 0.5 0 0 0 0 0 0 1 10 0 0
TSP BP 17.79606 3.8766116 3.6856453 0 0 0 0.5 0 0 0 0 0 0 1 10 0 0
TSP BP 7.133774 6.1453721 3.620717 0 0 0 0.5 0 0 0 0 0 0 1 10 0 0
TSP BP 7.3804947 2.4553841 3.9014165 0 0 0 0.5 0 0 0 0 0 0 1 10 0 0
TSP BP 17.487055 6.8358253 2.4329435 0 0 0 0.5 0 0 0 0 0 0 1 10 0 0
TSP BP 16.316294 6.320561 3.5030537 0 0 0 0.5 0 0 0 0 0 0 1 10 0 0
TSP BP 12.813617 8.8604731 3.8594255 0 0 0 0.5 0 0 0 0 0 0 1 10 0 0
TSP BP 1.2389773 1.2442431 2.9867715 0 0 0 0.5 0 0 0 0 0 0 1 10 0 0
TSP BP 12.422974 3.3475219 1.7914829 0 0 0 0.5 0 0 0 0 0 0 1 10 0 0
TSP BP 16.782406 1.1988773 3.363703 0 0 0 0.5 0 0 0 0 0 0 1 10 0 0
TSP BP 10.717068 4.3397325 3.0633334 0 0 0 0.5 0 0 0 0 0 0 1 10 0 0
TSP BP 5.2945676 6.8203945 2.3768493 0 0 0 0.5 0 0 0 0 0 0 1 10 0 0
TSP BP 12.9294 8.8259762 1.3919993 0 0 0 0.5 0 0 0 0 0 0 1 10 0 0
TSP BP 11.823297 4.4952941 1.1551472 0 0 0 0.5 0 0 0 0 0 0 1 10 0 0
TSP BP 8.0284771 9.4927685 1.2620611 0 0 0 0.5 0 0 0 0 0 0 1 10 0 0
TSP BP 4.1817044 8.3936218 3.8898706 0 0 0 0.5 0 0 0 0 0 0 1 10 0 0
TSP BP 19.067023 8.2834167 3.0710774 0 0 0 0.5 0 0 0 0 0 0 1 10 0 0
TSP BP 3.6025944 2.9848957 3.1107011 0 0 0 0.5 0 0 0 0 0 0 1 10 0 0
TSP BP 17.531719 5.2442877 4.0074213 0 0 0 0.5 0 0 0 0 0 0 1 10 0 0
TSP BP 4.3010223 3.780713 1.6759767 0 0 0 0.5 0 0 0 0 0 0 1 10 0 0
TSP BP 4.1284967 7.6384445 1.9206582 0 0 0 0.5 0 0 0 0 0 0 1 10 0 0
TSP BP 9.7757472 1.3583591 1.3631386 0 0 0 0.5 0 0 0 0 0 0 1 10 0 0
TSP BP 14.747593 7.3334887 2.3769481 0 0 0 0.5 0 0 0 0 0 0 1 10 0 0
TSP BP 2.9446425 6.2241105 1.191424 0 0 0 0.5 0 0 0 0 0 0 1 10 0 0
TSP BP 4.1027075 2.9257236 1.0168993 0 0 0 0.5 0 0 0 0 0 0 1 10 0 0
TSP BP 18.830097 4.2656534 2.0409479 0 0 0 0.5 0 0 0 0 0 0 1 10 0 0
TSP BP 8.4450559 3.3070271 2.9509842 0 0 0 0.5 0 0 0 0 0 0 1 10 0 0
TSP BP 16.739835 8.229748 3.5818059 0 0 0 0.5 0 0 0 0 0 0 1 10 0 0
TSP BP 2.2665827 9.3434163 1.0675159 0 0 0 0.5 0 0 0 0 0 0 1 10 0 0
TSP BP 1.7133256 9.0249462 2.8717911 0 0 0 0.5 0 0 0 0 0 0 1 10 0 0
TSP BP 15.172056 1.1793523 1.1678022 0 0 0 0.5 0 0 0 0 0 0 1 10 0 0
TSP BP 15.398759 8.5903874 2.2543485 0 0 0 0.5 0 0 0 0 0 0 1 10 0 0
TSP BP 10.872651 3.4014605 3.9529821 0 0 0 0.5 0 0 0 0 0 0 1 10 0 0
TSP BP 13.723806 5.5736393 2.9070239 0 0 0 0.5 0 0 0 0 0 0 1 10 0 0
TSP BP 1.2786922 4.2741728 2.6119811 0 0 0 0.5 0 0 0 0 0 0 1 10 0 0
TSP BP 13.162516 3.7451756 1.1453539 0 0 0 0.5 0 0 0 0 0 0 1 10 0 0
TSP BP 3.6113907 5.9165691 3.9263676 0 0 0 0.5 0 0 0 0 0 0 1 10 0 0
TSP BP 14.610405 7.5528201 3.9666843 0 0 0 0.5 0 0 0 0 0 0 1 10 0 0
TSP BP 14.379744 3.4968928 2.3033233 0 0 0 0.5 0 0 0 0 0 0 1 10 0 0
TSP BP 10.630792 8.1244517 2.9740591 0 0 0 0.5 0 0 0 0 0 0 1 10 0 0
TSP BP 17.894832 6.4016687 1.5490528 0 0 0 0.5 0 0 0 0 0 0 1 10 0 0
TSP BP 10.310966 5.1368111 2.5029246 0 0 0 0.5 0 0 0 0 0 0 1 10 0 0
TSP BP 2.0882503 3.4608606 1.4506375 0 0 0 0.5 0 0 0 0 0 0 1 10 0 0
TSP BP 9.6868398 7.8926291 3.5482996 0 0 0 0.5 0 0 0 0 0 0 1 10 0 0
TSP BP 8.5560499 4.7826295 2.3700785 0 0 0 0.5 0 0 0 0 0 0 1 10 0 0
TSP BP 14.46094 4.7942528 2.5954419 0 0 0 0.5 0 0 0 0 0 0 1 10 0 0
TSP BP 3.8509325 4.9498449 3.2282377 0 0 0 0.5 0 0 0 0 0 0 1 10 0 0
TSP BP 14.837987 6.256365 1.9538296 0 0 0 0.5 0 0 0 0 0 0 1 10 0 0
TSP BP 4.0491467 1.6531466 1.0990854 0 0 0 0.5 0 0 0 0 0 0 1 10 0 0
TSP BP 17.394718 8.3984595 1.8891635 0 0 0 0.5 0 0 0 0 0 0 1 10 0 0
TSP BP 9.2459015 9.3833471 1.6097647 0 0 0 0.5 0 0 0 0 0 0 1 10 0 0
TSP BP 2.1602013 1.4405258 2.1817772 0 0 0 0.5 0 0 0 0 0 0 1 10 0 0
TSP BP 4.6174061 4.4385917 3.980585 0 0 0 0.5 0 0 0 0 0 0 1 10 0 0
TSP BP 10.783485 8.0984426 3.9876613 0 0 0 0.5 0 0 0 0 0 0 1 10 0 0
TSP BP 19.709759 3.7267107 2.4791545 0 0 0 0.5 0 0 0 0 0 0 1 10 0 0
TSP BP 16.70744 3.8340364 1.7374252 0 0 0 0.5 0 0 0 0 0 0 1 10 0 0
TSP BP 19.46284 9.4167221 3.7645453 0 0 0 0.5 0 0 0 0 0 0 1 10 0 0
TSP BP 15.6089 2.2277632 2.6771576 0 0 0 0.5 0 0 0 0 0 0 1 10 0 0
TSP BP 19.468248 4.614545 3.2370357 0 0 0 0.5 0 0 0 0 0 0 1 10 0 0
TSP BP 10.458583 1.1556096 2.5486404 0 0 0 0.5 0 0 0 0 0 0 1 10 0 0
TSP BP 1.0589289 8.025353 1.5831993 0 0 0 0.5 0 0 0 0 0 0 1 10 0 0
TSP BP 1.2010161 4.7040868 3.6582046 0 0 0 0.5 0 0 0 0 0 0 1 10 0 0
TSP BP 11.047574 8.2720202 1.8863119 0 0 0 0.5 0 0 0 0 0 0 1 10 0 0
TSP BP 3.0727848 2.4086395 3.968687 0 0 0 0.5 0 0 0 0 0 0 1 10 0 0
TSP BP 16.418778 2.7673678 1.1304126 0 0 0 0.5 0 0 0 0 0 0 1 10 0 0
TSP BP 10.204263 9.9483154 1.3125817 0 0 0 0.5 0 0 0 0 0 0 1 10 0 0
TSP BP 1.8610781 7.9094771 2.2956476 0 0 0 0.5 0 0 0 0 0 0 1 10 0 0
TSP BP 5.941034 1.9648472 4.0357796 0 0 0 0.5 0 0 0 0 0 0 1 10 0 0
TSP BP 11.579582 2.4271057 3.0599079 0 0 0 0.5 0 0 0 0 0 0 1 10 0 0
TSP BP 13.308954 6.8252842 3.6525062 0 0 0 0.5 0 0 0 0 0 0 1 10 0 0
TSP BP 1.8951619 5.3677648 2.2781096 0 0 0 0.5 0 0 0 0 0 0 1 10 0 0
TSP BP 16.675703 7.2149912 3.1974733 0 0 0 0.5 0 0 0 0 0 0 1 10 0 0
TSP BP 8.0675864 7.9141134 1.7083181 0 0 0 0.5 0 0 0 0 0 0 1 10 0 0
TSP BP 15.142997 6.5049878 3.4830158 0 0 0 0.5 0 0 0 0 0 0 1 10 0 0
TSP BP 5.7548977 1.2191962 1.0248276 0 0 0 0.5 0 0 0 0 0 0 1 10 0 0
TSP BP 18.104763 1.0072521 3.6702656 0 0 0 0.5 0 0 0 0 0 0 1 10 0 0
TSP BP 17.572706 1.3134723 1.3620249 0 0 0 0.5 0 0 0 0 0 0 1 10 0 0
TSP BP 12.767614 4.9630917 4.0545457 0 0 0 0.5 0 0 0 0 0 0 1 10 0 0
TSP BP 17.854387 8.56863 2.7840605 0 0 0 0.5 0 0 0 0 0 0 1 10 0 0
TSP BP 11.844129 1.6231155 3.7776873 0 0 0 0.5 0 0 0 0 0 0 1 10 0 0
TSP BP 11.654417 5.8424765 3.2651081 0 0 0 0.5 0 0 0 0 0 0 1 10 0 0
TSP BP 14.781784 9.9110492 1.7664691 0 0 0 0.5 0 0 0 0 0 0 1 10 0 0
TSP BP 17.062841 9.0452692 1.1959516 0 0 0 0.5 0 0 0 0 0 0 1 10 0 0
TSP BP 19.490353 4.7845663 1.2462932 0 0 0 0.5 0 0 0 0 0 0 1 10 0 0
TSP BP 13.796769 1.8993316 1.5764936 0 0 0 0.5 0 0 0 0 0 0 1 10 0 0
TSP BP 1.0698398 8.9556302 3.9332978 0 0 0 0.5 0 0 0 0 0 0 1 10 0 0
TSP BP 5.9576487 3.254491 3.565149 0 0 0 0.5 0 0 0 0 0 0 1 10 0 0
TSP BP 19.900281 2.2550379 1.1792156 0 0 0 0.5 0 0 0 0 0 0 1 10 0 0
TSP BP 16.257873 5.7106573 1.0732317 0 0 0 0.5 0 0 0 0 0 0 1 10 0 0
TSP BP 11.886188 1.200333 1.2928056 0 0 0 0.5 0 0 0 0 0 0 1 10 0 0
TSP BP 13.408591 7.6771159 2.6212484 0 0 0 0.5 0 0 0 0 0 0 1 10 0 0
TSP BP 9.4687246 1.4396575 2.3148106 0 0 0 0.5 0 0 0 0 0 0 1 10 0 0
TSP BP 5.6457412 6.3343264 1.0869623 0 0 0 0.5 0 0 0 0 0 0 1 10 0 0
TSP BP 1.4717045 3.3811724 3.9703168 0 0 0 0.5 0 0 0 0 0 0 1 10 0 0
TSP BP 15.89614 9.794999 2.6797044 0 0 0 0.5 0 0 0 0 0 0 1 10 0 0
TSP BP 5.9150138 6.6670398 3.4131385 0 0 0 0.5 0 0 0 0 0 0 1 10 0 0
TSP BP 6.3005443 8.2464453 4.0083787 0 0 0 0.5 0 0 0 0 0 0 1 10 0 0
TSP BP 9.7608402 8.9626098 3.73145 0 0 0 0.5 0 0 0 0 0 0 1 10 0 0
TSP BP 15.930493 4.4206306 2.9586661 0 0 0 0.5 0 0 0 0 0 0 1 10 0 0
TSP BP 15.29292 4.531009 3.7902606 0 0 0 0.5 0 0 0 0 0 0 1 10 0 0
TSP BP 1.173364 9.8103199 1.1839727 0 0 0 0.5 0 0 0 0 0 0 1 10 0 0
TSP BP 10.137417 2.9235957 2.3489506 0 0 0 0.5 0 0 0 0 0 0 1 10 0 0
TSP BP 4.2709438 2.6277282 4.0962523 0 0 0 0.5 0 0 0 0 0 0 1 10 0 0
TSP BP 5.3574259 7.6017211 3.9407377 0 0 0 0.5 0 0 0 0 0 0 1 10 0 0
TSP BP 6.7138392 9.6599458 1.084263 0 0 0 0.5 0 0 0 0 0 0 1 10 0 0
TSP BP 19.936766 6.536725 1.1626181 0 0 0 0.5 0 0 0 0 0 0 1 10 0 0
TSP BP 8.1635556 9.9505362 2.1583338 0 0 0 0.5 0 0 0 0 0 0 1 10 0 0
TSP BP 7.9392727 3.4370301 4.0311281 0 0 0 0.5 0 0 0 0 0 0 1 10 0 0
TSP BP 12.51568 6.0071914 2.7039371 0 0 0 0.5 0 0 0 0 0 0 1 10 0 0
TSP BP 12.142828 9.5692889 4.0831293 0 0 0 0.5 0 0 0 0 0 0 1 10 0 0
TSP BP 6.7501112 5.8397328 2.7371977 0 0 0 0.5 0 0 0 0 0 0 1 10 0 0
TSP BP 13.363335 8.0494302 3.6081454 0 0 0 0.5 0 0 0 0 0 0 1 10 0 0
TSP BP 18.563972 5.1077699 3.1903167 0 0 0 0.5 0 0 0 0 0 0 1 10 0 0
TSP BP 9.2842439 1.4558137 4.0839854 0 0 0 0.5 0 0 0 0 0 0 1 10 0 0
TSP BP 1.4933541 4.4768773 1.4561564 0 0 0 0.5 0 0 0 0 0 0 1 10 0 0
TSP BP 12.493669 7.2565612 4.0895465 0 0 0 0.5 0 0 0 0 0 0 1 10 0 0
TSP BP 19.852185 7.6745487 2.8799907 0 0 0 0.5 0 0 0 0 0 0 1 10 0 0
TSP BP 9.594108 8.3017622 1.1003167 0 0 0 0.5 0 0 0 0 0 0 1 10 0 0
TSP BP 15.38046 5.1560873 1.3169776 0 0 0 0.5 0 0 0 0 0 0 1 10 0 0
TSP BP 14.356566 1.0909314 2.3964861 0 0 0 0.5 0 0 0 0 0 0 1 10 0 0
TSP BP 4.4519409 8.2091157 2.8320004 0 0 0 0.5 0 0 0 0 0 0 1 10 0 0
TSP BP 3.4338379 4.7097218 4.1309855 0 0 0 0.5 0 0 0 0 0 0 1 10 0 0
TSP BP 17.439175 4.4892526 2.6377112 0 0 0 0.5 0 0 0 0 0 0 1 10 0 0
TSP BP 14.031761 5.9947587 1.0173488 0 0 0 0.5 0 0 0 0 0 0 1 10 0 0
TSP BP 16.855641 1.0006049 2.1944832 0 0 0 0.5 0 0 0 0 0 0 1 10 0 0
TSP BP 19.965638 8.1338639 1.0682092 0 0 0 0.5 0 0 0 0 0 0 1 10 0 0
TSP BP 2.3121074 1.0582154 1.2225674 0 0 0 0.5 0 0 0 0 0 0 1 10 0 0
TSP BP 11.778453 7.81273 3.5265242 0 0 0 0.5 0 0 0 0 0 0 1 10 0 0
TSP BP 1.3231589 6.9900505 3.3999869 0 0 0 0.5 0 0 0 0 0 0 1 10 0 0
TSP BP 8.1301079 3.4775212 1.1055282 0 0 0 0.5 0 0 0 0 0 0 1 10 0 0
TSP BP 8.6395655 2.5849129 4.0967679 0 0 0 0.5 0 0 0 0 0 0 1 10 0 0
TSP BP 18.866099 2.3995085 3.9020583 0 0 0 0.5 0 0 0 0 0 0 1 10 0 0
TSP BP 19.918779 2.1086481 2.5276206 0 0 0 0.5 0 0 0 0 0 0 1 10 0 0
TSP BP 4.9220414 9.316811 4.1628966 0 0 0 0.5 0 0 0 0 0 0 1 10 0 0
TSP BP 19.86051 6.2438549 2.8923356 0 0 0 0.5 0 0 0 0 0 0 1 10 0 0
TSP BP 9.6461294 6.5325728 3.9567626 0 0 0 0.5 0 0 0 0 0 0 1 10 0 0
TSP BP 6.6880303 1.1367142 3.8979956 0 0 0 0.5 0 0 0 0 0 0 1 10 0 0
TSP BP 3.185473 5.1431531 2.1712511 0 0 0 0.5 0 0 0 0 0 0 1 10 0 0
TSP BP 5.9084725 7.8124295 1.2957033 0 0 0 0.5 0 0 0 0 0 0 1 10 0 0
TSP BP 11.459252 9.8687757 3.2680409 0 0 0 0.5 0 0 0 0 0 0 1 10 0 0
TSP BP 1.465326 6.4107671 4.215512 0 0 0 0.5 0 0 0 0 0 0 1 10 0 0
TSP BP 4.0273175 8.5604224 1.1193258 0 0 0 0.5 0 0 0 0 0 0 1 10 0 0
TSP BP 19.300931 9.932295 1.0034862 0 0 0 0.5 0 0 0 0 0 0 1 10 0 0
TSP BP 14.225245 8.5540356 2.805056 0 0 0 0.5 0 0 0 0 0 0 1 10 0 0
TSP BP 12.800079 1.1777848 4.1435173 0 0 0 0.5 0 0 0 0 0 0 1 10 0 0
TSP BP 11.381118 4.4422321 4.2473186 0 0 0 0.5 0 0 0 0 0 0 1 10 0 0
TSP BP 16.539407 4.2001877 4.1888957 0 0 0 0.5 0 0 0 0 0 0 1 10 0 0
TSP BP 4.5578687 5.524487 1.0644719 0 0 0 0.5 0 0 0 0 0 0 1 10 0 0
TSP BP 1.2556715 2.1170553 4.062965 0 0 0 0.5 0 0 0 0 0 0 1 10 0 0
TSP BP 11.14805 9.5489085 4.2209229 0 0 0 0.5 0 0 0 0 0 0 1 10 0 0
TSP BP 11.554402 7.5259278 2.3216004 0 0 0 0.5 0 0 0 0 0 0 1 10 0 0
TSP BP 16.755457 3.0734152 3.9455202 0 0 0 0.5 0 0 0 0 0 0 1 10 0 0
TSP BP 8.7001752 6.6052328 1.2723318 0 0 0 0.5 0 0 0 0 0 0 1 10 0 0
TSP BP 6.129827 4.3621947 2.2065648 0 0 0 0.5 0 0 0 0 0 0 1 10 0 0
TSP BP 6.5947157 9.8602851 4.2919926 0 0 0 0.5 0 0 0 0 0 0 1 10 0 0
TSP BP 14.954656 8.7897834 4.2708728 0 0 0 0.5 0 0 0 0 0 0 1 10 0 0
TSP BP 8.349947 1.3039907 2.5241697 0 0 0 0.5 0 0 0 0 0 0 1 10 0 0
TSP BP 16.701576 2.9006429 2.1639583 0 0 0 0.5 0 0 0 0 0 0 1 10 0 0
TSP BP 6.7270258 3.2504571 4.215436 0 0 0 0.5 0 0 0 0 0 0 1 10 0 0
TSP BP 2.2246418 5.5668467 4.0904135 0 0 0 0.5 0 0 0 0 0 0 1 10 0 0
TSP BP 19.963318 4.0570592 4.198734 0 0 0 0.5 0 0 0 0 0 0 1 10 0 0
TSP BP 18.40892 9.2746268 1.8859252 0 0 0 0.5 0 0 0 0 0 0 1 10 0 0
TSP BP 5.5932902 4.9617641 4.220306 0 0 0 0.5 0 0 0 0 0 0 1 10 0 0
TSP BP 14.326269 2.4826265 4.2164284 0 0 0 0.5 0 0 0 0 0 0 1 10 0 0
TSP BP 14.379398 6.621911 4.2846304 0 0 0 0.5 0 0 0 0 0 0 1 10 0 0
TSP BP 11.318388 2.5141041 4.0763946 0 0 0 0.5 0 0 0 0 0 0 1 10 0 0
TSP BP 6.5877723 6.9872296 4.2621504 0 0 0 0.5 0 0 0 0 0 0 1 10 0 0
TSP BP 5.7476746 4.2691909 3.1732161 0 0 0 0.5 0 0 0 0 0 0 1 10 0 0
TSP BP 16.141984 7.9574207 1.090057 0 0 0 0.5 0 0 0 0 0 0 1 10 0 0
TSP BP 2.3844428 9.9183012 2.7269471 0 0 0 0.5 0 0 0 0 0 0 1 10 0 0
TSP BP 7.2191135 2.1496235 1.049853 0 0 0 0.5 0 0 0 0 0 0 1 10 0 0
TSP BP 2.3155533 8.8643974 1.9441093 0 0 0 0.5 0 0 0 0 0 0 1 10 0 0
TSP BP 18.564823 8.9895914 4.3373043 0 0 0 0.5 0 0 0 0 0 0 1 10 0 0
TSP BP 7.9384119 3.9442954 2.3571073 0 0 0 0.5 0 0 0 0 0 0 1 10 0 0
TSP BP 7.3568603 7.0173839 2.5118677 0 0 0 0.5 0 0 0 0 0 0 1 10 0 0
TSP BP 10.100838 4.5850392 4.3734982 0 0 0 0.5 0 0 0 0 0 0 1 10 0 0
TSP BP 15.450533 6.2031779 4.4025664 0 0 0 0.5 0 0 0 0 0 0 1 10 0 0
TSP BP 1.9412289 8.3650955 1.1087943 0 0 0 0.5 0 0 0 0 0 0 1 10 0 0
TSP BP 13.443979 4.4778157 3.3263473 0 0 0 0.5 0 0 0 0 0 0 1 10 0 0
TSP BP 1.0309589 9.973681 3.9213392 0 0 0 0.5 0 0 0 0 0 0 1 10 0 0
TSP BP 5.5409576 3.0463025 2.2686034 0 0 0 0.5 0 0 0 0 0 0 1 10 0 0
TSP BP 16.188446 1.4159182 4.3730088 0 0 0 0.5 0 0 0 0 0 0 1 10 0 0
TSP BP 7.5354547 7.9854676 4.4195734 0 0 0 0.5 0 0 0 0 0 0 1 10 0 0
TSP BP 3.9331065 6.64112 3.2962153 0 0 0 0.5 0 0 0 0 0 0 1 10 0 0
TSP BP 17.461738 7.0122766 4.4129527 0 0 0 0.5 0 0 0 0 0 0 1 10 0 0
TSP BP 17.014414 5.9867311 1.8188156 0 0 0 0.5 0 0 0 0 0 0 1 10 0 0
TSP BP 7.9648177 1.8268537 4.4726468 0 0 0 0.5 0 0 0 0 0 0 1 10 0 0
TSP BP 18.35158 4.5941953 4.2150543 0 0 0 0.5 0 0 0 0 0 0 1 10 0 0
TSP BP 7.6268397 5.2735248 4.3718659 0 0 0 0.5 0 0 0 0 0 0 1 10 0 0
TSP BP 19.471584 1.067558 4.5127503 0 0 0 0.5 0 0 0 0 0 0 1 10 0 0
TSP BP 3.9522372 3.602514 4.4860965 0 0 0 0.5 0 0 0 0 0 0 1 10 0 0
TSP BP 5.5949162 9.6530905 2.1972238 0 0 0 0.5 0 0 0 0 0 0 1 10 0 0
TSP BP 8.7786194 7.6038155 1.0656261 0 0 0 0.5 0 0 0 0 0 0 1 10 0 0
TSP BP 10.900701 1.0017492 1.1475787 0 0 0 0.5 0 0 0 0 0 0 1 10 0 0
TSP BP 15.366169 2.3340849 4.5540723 0 0 0 0.5 0 0 0 0 0 0 1 10 0 0
TSP BP 18.17484 2.2374481 2.3885759 0 0 0 0.5 0 0 0 0 0 0 1 10 0 0
TSP BP 11.561082 7.5204845 4.5032308 0 0 0 0.5 0 0 0 0 0 0 1 10 0 0
TSP BP 11.776952 6.3046392 4.3671228 0 0 0 0.5 0 0 0 0 0 0 1 10 0 0
TSP BP 1.7851588 7.6889389 4.573244 0 0 0 0.5 0 0 0 0 0 0 1 10 0 0
TSP BP 1.5912188 1.2421504 4.4250465 0 0 0 0.5 0 0 0 0 0 0 1 10 0 0
TSP BP 10.196167 1.9866754 4.5894949 0 0 0 0.5 0 0 0 0 0 0 1 10 0 0
TSP BP 13.811051 3.9028786 4.4765367 0 0 0 0.5 0 0 0 0 0 0 1 10 0 0
TSP BP 14.280838 1.0951923 4.363664 0 0 0 0.5 0 0 0 0 0 0 1 10 0 0
TSP BP 15.294935 6.3813457 1.0086903 0 0 0 0.5 0 0 0 0 0 0 1 10 0 0
TSP BP 9.0745978 5.2136753 4.3555307 0 0 0 0.5 0 0 0 0 0 0 1 10 0 0
TSP BP 4.9444221 3.3893226 4.4217212 0 0 0 0.5 0 0 0 0 0 0 1 10 0 0
TSP BP 11.109393 1.1339194 4.6028855 0 0 0 0.5 0 0 0 0 0 0 1 10 0 0
TSP BP 4.0227046 1.0253286 4.1509564 0 0 0 0.5 0 0 0 0 0 0 1 10 0 0
TSP BP 2.1629474 3.7280487 4.612512 0 0 0 0.5 0 0 0 0 0 0 1 10 0 0
TSP BP 9.7678138 3.4273954 4.6389933 0 0 0 0.5 0 0 0 0 0 0 1 10 0 0
TSP BP 13.636916 8.3009865 4.5534453 0 0 0 0.5 0 0 0 0 0 0 1 10 0 0
TSP BP 13.301582 6.6870893 4.643778 0 0 0 0.5 0 0 0 0 0 0 1 10 0 0
TSP BP 17.31211 1.005149 4.3178151 0 0 0 0.5 0 0 0 0 0 0 1 10 0 0
TSP BP 7.3165033 4.2503873 4.5364488 0 0 0 0.5 0 0 0 0 0 0 1 10 0 0
TSP BP 1.2893112 5.4273373 4.4877399 0 0 0 0.5 0 0 0 0 0 0 1 10 0 0
TSP BP 1.0123932 1.0354135 1.1663813 0 0 0 0.5 0 0 0 0 0 0 1 10 0 0
TSP BP 8.6506235 6.3978829 4.3747467 0 0 0 0.5 0 0 0 0 0 0 1 10 0 0
TSP BP 18.160223 2.6724548 4.5748418 0 0 0 0.5 0 0 0 0 0 0 1 10 0 0
TSP BP 3.0237947 9.8333197 4.1717426 0 0 0 0.5 0 0 0 0 0 0 1 10 0 0
TSP BP 9.6948767 7.7505067 4.6852978 0 0 0 0.5 0 0 0 0 0 0 1 10 0 0
TSP BP 12.824009 2.8492592 4.6087592 0 0 0 0.5 0 0 0 0 0 0 1 10 0 0
TSP BP 16.328578 8.1038789 4.5439815 0 0 0 0.5 0 0 0 0 0 0 1 10 0 0