restart_version 1.0 name AxisymmetricHopperSelfTest
dataFile    fileType ONE_FILE saveCount 16 counter 49 lastSavedTimeStep 775
fStatFile   fileType NO_FILE saveCount 16 counter 0
eneFile     fileType ONE_FILE saveCount 16 counter 49 lastSavedTimeStep 775
restartFile fileType ONE_FILE saveCount 16 counter 49 lastSavedTimeStep 775
statFile    fileType ONE_FILE saveCount 16 counter 0
interactionFile fileType NO_FILE saveCount 0 counter 0
xMin 0 xMax 20 yMin 0 yMax 20 zMin 0 zMax 19.4280904158206
timeStep 0.01 time 7.74999999999988 ntimeSteps 775 timeMax 7.74596669241483
systemDimensions 3 particleDimensions 3 gravity 0 0 -1 writeVTK 0 NO_FILE NO_FILE random  0 1103515245 12345 1073741824 607 273 784607267 xBallsArguments -sort -v0 -solidf
Species 1
LinearViscoelasticFrictionSpecies id 0 density 1.90985931710274 stiffness 501.700317749126 dissipation 4.05465108108166 slidingStiffness 143.342947928322 slidingDissipation 1.1584717374519 slidingFrictionCoefficient 0.4 slidingFrictionCoefficientStatic 0.4 rollingStiffness 143.342947928322 rollingDissipation 1.1584717374519 rollingFrictionCoefficient 0.1 rollingFrictionCoefficientStatic 0.1 torsionStiffness 0 torsionDissipation 0 torsionFrictionCoefficient 0 torsionFrictionCoefficientStatic 0
Walls 1
AxisymmetricIntersectionOfWalls id 0 indSpecies 0 position 10 10 0 orientation 0.707106781186548 0 -0.707106781186548 0 velocity 0 0 0 angularVelocity 0 0 0 force 51.426599662167 -43.4150965365181 -1145.62917400285 torque 717.512977257575 1176.24612409916 -27.0020170465232 numIntersectionOfWalls 3 position 3.33333333333333 0 10 orientation 0.953020613871422 0 0.302905446527686 0 position 10 0 19.4280904158206 orientation 0 0 1 0 position 10 0 10 orientation 0.707106781186547 0 -0.707106781186547 0
Boundaries 0
Particles 1200
BaseParticle id 0 indSpecies 0 position 10.6960150275777 10.062904047623 -3.53521476477094 orientation -0.620665317515201 0.623777338907766 0.389179863428307 -0.272425088787404 velocity 0.561595734396846 -0.0596557746324817 -6.16058618816818 angularVelocity -0.0319913198575738 0.404049879906592 -0.123935558035876 force 0 0 -1 torque 0 0 0 radius 0.5 invMass 1
BaseParticle id 1186 indSpecies 0 position 6.99231214391716 4.64382547835347 18.7178640213573 orientation 1 0 0 0 velocity 0 0 -0.615 angularVelocity 0 0 0 force 0 0 -1 torque 0 0 0 radius 0.5 invMass 1
BaseParticle id 1050 indSpecies 0 position 11.2316888343716 12.4870681645193 17.8480215184453 orientation 0.977547441170439 -0.17688410421965 0.107345937563715 -0.0398730939871115 velocity -0.0480920356529862 0.0690184947989809 -1.3822564614251 angularVelocity -0.326925351663298 0.0207012123093783 -0.189645104273826 force 0 0 -1 torque 0 0 0 radius 0.5 invMass 1
BaseParticle id 1049 indSpecies 0 position 8.46133313430666 11.3718630976254 17.4121661804775 orientation 0.997434808738206 -0.0702506236491364 0.0116264303129595 -0.00731288673936612 velocity -0.0332295707407237 -0.195939922077557 -1.63654927283028 angularVelocity -0.271263672644121 0.0448910962990336 -0.0282374700289242 force 0 0 -1 torque 0 0 0 radius 0.5 invMass 1
BaseParticle id 4 indSpecies 0 position 10.1939395709707 11.8279027433929 -2.07458434110764 orientation 0.839897431809266 0.326138608991053 -0.39847590821467 -0.171530936970782 velocity -0.0684590667896115 0.0837326247126382 -5.73700867904372 angularVelocity -0.0929035051788511 -0.022967691114374 0.0607136363915707 force 0 0 -1 torque 0 0 0 radius 0.5 invMass 1
BaseParticle id 5 indSpecies 0 position 11.2998717028167 6.8734326817355 3.51556853891387 orientation -0.601466735633469 -0.446053869782898 -0.229436652666115 -0.621797823726884 velocity 0.203349267421785 -0.417618442493797 -4.08675721286471 angularVelocity -0.973702047348801 -0.704765948691219 0.582930006208787 force 0 0 -1 torque 0 0 0 radius 0.5 invMass 1
BaseParticle id 1048 indSpecies 0 position 5.23939138322254 7.61853726871484 16.7337523328987 orientation 0.918100116908226 0.258280060009998 0.273716291537188 0.12435022187943 velocity 0.865462412903195 0.0740262911675553 -0.852760180691349 angularVelocity 0.741551404983079 0.741753565211349 0.541046407929948 force 0 0 -1 torque 0 0 0 radius 0.5 invMass 1
BaseParticle id 7 indSpecies 0 position 6.62681132475806 8.28803398455778 -1.8932304929156 orientation -0.86748641576611 -0.164271747666295 0.0519613736887415 -0.466671326550399 velocity -0.916033035196073 0.282395360258942 -5.47737008310465 angularVelocity -1.07575158199122 -0.161359711258723 0.0681892256239431 force 0 0 -1 torque 0 0 0 radius 0.5 invMass 1
BaseParticle id 1185 indSpecies 0 position 9.92809362281587 17.5081988218361 18.7157127805526 orientation 1 0 0 0 velocity 0 0 -0.615 angularVelocity 0 0 0 force 0 0 -1 torque 0 0 0 radius 0.5 invMass 1
BaseParticle id 9 indSpecies 0 position 7.13892582082347 10.6602721346509 10.9967118213213 orientation 0.530564577363398 -0.769950421889298 0.346454469347406 -0.0751457101164061 velocity 0.336810336249379 -0.177423792088369 -0.7449011487821 angularVelocity -0.268631368596413 -0.0732029047116819 -0.484783949076354 force 1.34671415445198 1.00848559650326 1.29833709103467 torque -0.11397931466851 -0.341661111026174 0.0446092848721795 radius 0.5 invMass 1
BaseParticle id 1184 indSpecies 0 position 6.74686112565456 18.2615046222736 18.7290097169401 orientation 0.998911798762616 0.0433960314526083 0.0170880878684235 1.20394353249535e-17 velocity 0.09208922289481 -0.233865066937892 -0.221897446654863 angularVelocity 0.435663015238502 0.17155135242143 1.34532033560978e-17 force 0 0 -1 torque 0 0 0 radius 0.5 invMass 1
BaseParticle id 1047 indSpecies 0 position 13.43802776068 5.6811449882889 17.5203194845539 orientation 1 0 0 0 velocity 0 0 -1.67499999999999 angularVelocity 0 0 0 force 0 0 -1 torque 0 0 0 radius 0.5 invMass 1
BaseParticle id 12 indSpecies 0 position 12.0572305841506 6.77809278333521 11.449130805539 orientation 0.990131501988064 -0.089960029702117 -0.0841267816915778 0.0668542177358554 velocity -0.0482988983716051 0.05657905630091 -0.331379347847346 angularVelocity -0.376793452988269 -0.164970049399455 0.0865196185269594 force 0.0258484817061877 0.143385486617886 1.62018420183666 torque -0.0100381498495923 0.077509826822288 -0.0379636776597476 radius 0.5 invMass 1
BaseParticle id 1046 indSpecies 0 position 10.289953530961 16.5836744529984 17.0074653982613 orientation 0.979019259096244 -0.0411547487755024 -0.165524155320164 0.111486909444172 velocity 0.276829093148396 -0.66570333174174 -0.788221067016228 angularVelocity 0.312608958610168 1.02114794767372 0.13579109099934 force -4.74607736210055 -0.112809290527836 6.99101181366666 torque -0.707548085740391 0.504671763841369 0.838374635641904 radius 0.5 invMass 1
BaseParticle id 14 indSpecies 0 position 9.25012884685667 8.96229123711744 0.00205206318263797 orientation 0.468425271895638 -0.214968821348231 0.132735324974361 -0.846609416438065 velocity -0.106792460009022 -0.149352345394219 -5.27992442863517 angularVelocity -0.185078529078242 0.198076430363977 0.318854753775093 force 0 0 -1 torque 0 0 0 radius 0.5 invMass 1
BaseParticle id 15 indSpecies 0 position 13.6189051069082 12.4006386676432 12.2785487711492 orientation 0.113142017320407 0.884593132594067 -0.304375892103475 -0.334737494150712 velocity -0.0145357355397585 -0.0316278886357617 -0.116795455231684 angularVelocity -0.011020182288693 -0.0724397443963135 0.0556545081459153 force 0.603280207403242 -0.315054191798504 -0.662707191549564 torque 0.148486587978702 -0.0248247619119886 0.118754077529526 radius 0.5 invMass 1
BaseParticle id 16 indSpecies 0 position 7.84436677919999 12.9524837807633 11.2968233343746 orientation -0.693728764686756 -0.500229183573001 0.513111649529925 0.0723021442611179 velocity 0.0992885897176043 -0.154877808783919 -0.12901233453674 angularVelocity 0.249434780398023 0.18791683675343 0.0103273685896857 force 0.333108057924527 0.775433531664577 -0.0164542067116011 torque -0.226156786898898 -0.172806134146322 0.102563720530836 radius 0.5 invMass 1
BaseParticle id 1045 indSpecies 0 position 9.28537551560595 6.07380802229121 17.5625251784621 orientation 0.995356515424326 0.042563471371841 0.0769465044106429 -0.0391534617384544 velocity 0.345747991880085 0.338164658131322 -0.707295240287913 angularVelocity 0.550021183550855 1.11246345690851 -0.517400915130753 force 0 0 -1 torque 0 0 0 radius 0.5 invMass 1
BaseParticle id 1044 indSpecies 0 position 4.56273730755826 14.094681317938 17.5937846713762 orientation 0.99740027796205 -0.036541144919825 -0.0611390059742374 0.0109294189075109 velocity 0.489053543822883 0.277380335007009 -0.867565263250517 angularVelocity -0.190973054572591 -0.737482076251828 -0.159179143892637 force -0.408780041776647 2.65139777574696 1.66321036302747 torque 0.178283747731618 -0.0985384342241471 -0.123668508738793 radius 0.5 invMass 1
BaseParticle id 19 indSpecies 0 position 10.728545430092 5.68996186759068 12.2928929437408 orientation -0.62755480702474 -0.777242115316152 0.0260454367069804 -0.0373000480664385 velocity 0.0119223613577097 0.0658813454885466 -0.193647144064936 angularVelocity -0.274881309215101 -0.0421781552913706 -0.00691389180063692 force 1.04491303803978 -0.939449422215849 0.833622038063146 torque -0.0837987613875812 -0.203629959642797 0.0345694027814423 radius 0.5 invMass 1
BaseParticle id 1043 indSpecies 0 position 9.78955489126943 14.7544272530676 17.3310066371035 orientation 0.997476375910632 -0.00953299498717567 0.0697002989414182 0.00958487528576699 velocity 0.0487170316900043 -0.727343248997602 -1.11472522205281 angularVelocity 0.107453825666944 0.461967364145466 0.138606584330972 force 0 0 -1 torque 0 0 0 radius 0.5 invMass 1
BaseParticle id 21 indSpecies 0 position 9.48638594895896 11.6597808965848 -2.77308985687093 orientation -0.650210454773688 -0.407198851533967 0.313571531921468 0.559542986892729 velocity -0.0135818138978015 0.0988595564007295 -5.70219838721642 angularVelocity 0.633059510337771 0.00759302440903079 0.797354802685695 force 0 0 -1 torque 0 0 0 radius 0.5 invMass 1
BaseParticle id 1183 indSpecies 0 position 9.21632192450634 10.821235504398 18.7029649334663 orientation 1 0 0 0 velocity 0 0 -0.635 angularVelocity 0 0 0 force 0 0 -1 torque 0 0 0 radius 0.5 invMass 1
BaseParticle id 23 indSpecies 0 position 7.22009944713423 10.2217480241247 9.9216235303992 orientation -0.131272912520378 0.41959138991008 0.684602005232898 -0.58140397520385 velocity 0.320641631856495 -0.232482845130465 -1.21248962109644 angularVelocity -0.366549326207837 0.469049584243036 0.32041354873828 force 0 0 -1 torque 0 0 0 radius 0.5 invMass 1
BaseParticle id 24 indSpecies 0 position 12.6944562923188 5.06158839717385 14.0946054803076 orientation -0.860154613968932 -0.393439518678769 0.305677657024916 0.109089665897069 velocity 0.0498123472550115 0.0659276761643091 -0.0994923291243265 angularVelocity -0.0178471755521122 -0.0863608516308593 -0.0356450755271937 force -0.103422549017272 -0.281323654920651 -0.663901124750956 torque -0.156064204934246 -0.141060135554289 0.0363601647720389 radius 0.5 invMass 1
BaseParticle id 25 indSpecies 0 position 10.5248474604832 8.48897695391093 1.93708744637404 orientation 0.071807090666588 -0.958060438042876 -0.277219932097889 -0.0106324049365783 velocity 0.323547247142833 0.0291699768721755 -4.79443850367539 angularVelocity -0.605619670456749 -0.12549075197398 -0.272446635685753 force 0 0 -1 torque 0 0 0 radius 0.5 invMass 1
BaseParticle id 26 indSpecies 0 position 7.04758806090262 12.3832748455877 11.4337124960774 orientation 0.178397215789805 0.169235686127107 0.924597653079202 -0.290951707092371 velocity 0.202161767315363 -0.154104588794035 -0.223294745095428 angularVelocity 0.307529238407184 0.180186957340375 0.110732652501047 force -0.710491772278575 0.0999486466513546 -1.69703225484677 torque 0.0252801862609884 -0.0776584864077124 0.170663990554132 radius 0.5 invMass 1
BaseParticle id 1182 indSpecies 0 position 9.08146351339453 7.76191927793563 18.6501351263737 orientation 1 0 0 0 velocity 0 0 -0.645 angularVelocity 0 0 0 force 0 0 -1 torque 0 0 0 radius 0.5 invMass 1
BaseParticle id 1181 indSpecies 0 position 15.7330431322261 12.9282676730468 18.7033027953056 orientation 1 0 0 0 velocity 0 0 -0.655 angularVelocity 0 0 0 force 0 0 -1 torque 0 0 0 radius 0.5 invMass 1
BaseParticle id 29 indSpecies 0 position 10.0833909460936 6.05792857193912 11.6331699785783 orientation 0.92484339761417 0.338371055791226 0.0751772077276401 -0.156582585016615 velocity -0.0670750095133583 -0.025823556380478 -0.171795334051842 angularVelocity -0.298796110158347 0.0911137877644669 0.165630798060975 force 1.84151692590949 -0.0742034225732002 0.590566697506627 torque -0.0947935193233136 -0.0772313906049312 0.0067660063721714 radius 0.5 invMass 1
BaseParticle id 30 indSpecies 0 position 7.48567350031358 12.780215218538 -0.996417969428463 orientation -0.638227650056122 0.659436245579224 0.246325082642703 -0.311662090061148 velocity -0.412072824095684 0.295085458450541 -5.3242699349427 angularVelocity 0.278872690182371 0.773901031853774 -0.169299289434559 force 0 0 -1 torque 0 0 0 radius 0.5 invMass 1
BaseParticle id 31 indSpecies 0 position 6.98375964997715 8.98224665461792 10.5643918804665 orientation -0.87797892296603 0.00924225549391218 -0.12621805155264 -0.461667190737062 velocity 0.474024941926892 0.16719787706553 -0.633572189298554 angularVelocity -0.479455618128694 1.12996298508706 -0.0026219856103789 force -2.04916351542388 -0.997234964303304 0.120120408280574 torque 0.277653679353709 -0.0555912133240207 0.362789619294743 radius 0.5 invMass 1
BaseParticle id 32 indSpecies 0 position 12.4417667244561 6.5489314807439 3.11349856858105 orientation -0.274164198112855 -0.862719634793752 -0.188153944856949 0.380981518251527 velocity 0.162999425514407 -1.01175043825223 -4.30206502678632 angularVelocity -0.309771090399421 -0.221136317974586 -0.772709878843037 force 0 0 -1 torque 0 0 0 radius 0.5 invMass 1
BaseParticle id 1042 indSpecies 0 position 12.9299609606396 17.5839113488196 17.7827680483522 orientation 0.992945693853028 0.11726162355996 0.015266025506896 0.00868960091336349 velocity 0.0151613787997951 -0.676945822290041 -0.0824002975255471 angularVelocity 1.02079171750791 0.080136273230527 0.0657406741705124 force 0 0 -1 torque 0 0 0 radius 0.5 invMass 1
BaseParticle id 34 indSpecies 0 position 8.45173425522861 11.4089440236983 -1.34211715429762 orientation 0.859863709879359 0.257384865399195 -0.339240703400223 0.28160819706192 velocity -0.381148123213074 -0.117189407693805 -5.7165324742591 angularVelocity -0.0827866474114623 -0.386506576354052 0.142397676010945 force 0 0 -1 torque 0 0 0 radius 0.5 invMass 1
BaseParticle id 35 indSpecies 0 position 11.6727790727228 8.12333055751954 0.52012396436267 orientation -0.841410030156607 -0.100872545654132 -0.472024172928507 0.242996030536038 velocity -0.147023338485373 -0.116119140306615 -4.88989362999038 angularVelocity -0.651077154429897 -0.850968027629739 0.456834615718413 force 0 0 -1 torque 0 0 0 radius 0.5 invMass 1
BaseParticle id 1180 indSpecies 0 position 5.65002970530956 6.90599412068434 17.7057340177031 orientation 0.998961223065806 0.00517388280578749 -0.0452554844085722 0.00128330765108175 velocity 0.0372519811698709 0.0013791923095004 -0.87744424801351 angularVelocity 0.0352827218256245 -0.248909827023517 0.00385410092490662 force 0 0 -1 torque 0 0 0 radius 0.5 invMass 1
BaseParticle id 37 indSpecies 0 position 9.82606474828584 9.66103764392476 -2.18597085146468 orientation 0.324288149652288 -0.660081508219622 -0.631055423163881 -0.246776521162487 velocity -0.0381253664694594 0.143167115516788 -5.86127324131843 angularVelocity -0.437781358702274 -0.405913819161431 0.00706490977937408 force 0 0 -1 torque 0 0 0 radius 0.5 invMass 1
BaseParticle id 38 indSpecies 0 position 13.3763297797147 8.85678808449789 -0.98796271936317 orientation -0.0617099146713912 -0.825518776437533 -0.533978237613194 -0.171982202381047 velocity 0.491141792694862 -0.227169859978505 -5.39960826386027 angularVelocity -0.665995738702362 -0.241381698403268 -0.536179633046839 force 0 0 -1 torque 0 0 0 radius 0.5 invMass 1
BaseParticle id 39 indSpecies 0 position 11.178690985867 7.54437863625803 7.52812291277112 orientation -0.372460534862165 -0.345941899796365 -0.741837374425471 0.437349587676718 velocity -0.530792703094867 -0.26435879077687 -2.56681158001822 angularVelocity -0.863288366712054 0.33946064114425 0.300229831967558 force 0 0 -1 torque 0 0 0 radius 0.5 invMass 1
BaseParticle id 40 indSpecies 0 position 6.6841353581614 11.5010206883376 11.2665812306443 orientation -0.802281396286112 -0.042535168119776 0.339290070399422 -0.489303146091034 velocity 0.24586646931996 -0.18295858652814 -0.641124796124901 angularVelocity 0.199490140474616 -0.0682438586935461 0.140170182349601 force -0.792876660775428 -0.559671527617109 -0.0419140004969005 torque -0.0472570375386037 -0.0504446298955324 -0.100458154732835 radius 0.5 invMass 1
BaseParticle id 41 indSpecies 0 position 12.8251912059095 7.38483528452661 11.548849746778 orientation 0.802863379709773 -0.414913474794957 -0.4278050716998 -0.0154926622149194 velocity -0.0956298313559946 0.184993602311474 -0.47537987611575 angularVelocity -0.250831889524386 -0.0368495310617241 0.161821481310947 force 0.0231500220547378 -0.114224073030551 -1.09243452653852 torque 0.0801050643500312 -0.0571438703491971 -0.0995269327350634 radius 0.5 invMass 1
BaseParticle id 42 indSpecies 0 position 8.57227355743986 8.06223399956964 -1.32822289049434 orientation 0.831727113998065 -0.225351386912175 0.182089534516331 -0.473592822661868 velocity -0.230476316724187 -0.190479045868045 -5.50162821827674 angularVelocity 0.0170142175697006 -0.239642015048493 0.0604871956201979 force 0 0 -1 torque 0 0 0 radius 0.5 invMass 1
BaseParticle id 43 indSpecies 0 position 9.19082717797148 8.670995538387 -2.96414802989173 orientation -0.0270278067982578 -0.425191979421488 0.842224874586685 0.330361224908062 velocity 0.115146194348222 -0.24264879722867 -6.03244349452704 angularVelocity -0.277720272404291 -0.0649841466610241 -0.45698521835217 force 0 0 -1 torque 0 0 0 radius 0.5 invMass 1
BaseParticle id 44 indSpecies 0 position 11.8578486489595 12.6572159086899 10.698230152592 orientation -0.0724081777837668 0.283089409119194 -0.852298235785332 -0.433826185829983 velocity -0.0754888000337515 -0.33751441757392 -0.585275295165212 angularVelocity 0.444757619578169 -0.66223303314669 0.389974551116123 force 1.48970582197235 -1.94594713104807 5.14598913031582 torque 0.0651645703974481 -0.595759781318539 -0.272680989307585 radius 0.5 invMass 1
BaseParticle id 45 indSpecies 0 position 6.08239947000704 9.36670217436283 11.6938625030313 orientation -0.660887736131078 -0.279592312799645 0.4566638040745 0.525845708267255 velocity 0.0444783818658784 -0.157307600347605 -0.237460450840809 angularVelocity -0.160688611757424 0.31603159546332 -0.171418933697836 force -0.072530517234318 0.23530915343571 -0.131473598528115 torque -0.0322101923624571 0.207943516954398 0.0496013353716087 radius 0.5 invMass 1
BaseParticle id 46 indSpecies 0 position 10.9289704239318 8.47875005431634 6.72449800143178 orientation 0.419886180204901 0.17503261318091 -0.645356229858847 -0.613656676471766 velocity -0.213326109311754 -0.157826293934846 -3.16947872989419 angularVelocity 0.346897997208862 -0.768412487367422 -0.663407847365671 force 0 0 -1 torque 0 0 0 radius 0.5 invMass 1
BaseParticle id 47 indSpecies 0 position 7.50644363634925 10.0657665685191 -0.919837403915617 orientation -0.63463293408438 0.255396727050554 0.667306914550564 0.294474162840005 velocity -0.457796671726853 0.0175234938098853 -5.64694016963307 angularVelocity 0.419529445960444 0.277119178415917 0.00946782153754111 force 0 0 -1 torque 0 0 0 radius 0.5 invMass 1
BaseParticle id 48 indSpecies 0 position 9.77347982804187 8.27808613439383 7.35535583503874 orientation 0.172240242640534 -0.750041158463703 0.634287913179168 -0.0738268421400565 velocity -0.208825882860137 0.602502292238791 -3.06368967303057 angularVelocity 0.0157997052559537 -0.757658352700495 -1.02553462031092 force 0 0 -1 torque 0 0 0 radius 0.5 invMass 1
BaseParticle id 1179 indSpecies 0 position 10.1968668468748 2.86392337414993 18.6788069946338 orientation 1 0 0 0 velocity 0 0 -0.665 angularVelocity 0 0 0 force 0 0 -1 torque 0 0 0 radius 0.5 invMass 1
BaseParticle id 50 indSpecies 0 position 10.4257115630038 10.9819420316694 1.03034934606653 orientation 0.737949751514477 0.497600560870158 -0.454435105271738 0.0362295619362059 velocity -0.177575675280253 0.00543671354720044 -5.16937506407278 angularVelocity 0.133510181884486 -0.180873859983313 -0.234350412023746 force 0 0 -1 torque 0 0 0 radius 0.5 invMass 1
BaseParticle id 1041 indSpecies 0 position 8.69978362461342 9.91793841982898 17.4845175054511 orientation 0.999433336314151 -0.0223081941899531 0.0252061646417657 -1.08360007082469e-17 velocity 0.0831760799496457 0.0736132676210981 -1.57152801842898 angularVelocity -0.225166368641008 0.254416852902861 -2.76491203331046e-16 force 0 0 -1 torque 0 0 0 radius 0.5 invMass 1
BaseParticle id 1178 indSpecies 0 position 4.31165364562384 16.4429953004543 18.4988576743157 orientation 1 0 0 0 velocity 0 0 -0.675 angularVelocity 0 0 0 force 0 0 -1 torque 0 0 0 radius 0.5 invMass 1
BaseParticle id 53 indSpecies 0 position 12.7133552598998 8.17542349654776 10.7642514769309 orientation -0.111131908014502 -0.691241459701579 -0.711015499502534 -0.0655126161731386 velocity -0.355804282677401 0.270493496171264 -0.664124681300347 angularVelocity -0.725625295008757 -0.576386530534287 0.00355413491570422 force -1.28694989439262 1.5322021586322 2.33722171607777 torque -0.118424981563102 -0.338959888392337 0.206618554766919 radius 0.5 invMass 1
BaseParticle id 1177 indSpecies 0 position 14.0173853570344 7.21814928905288 17.0423939112143 orientation 0.986759931458981 -0.0794203058576696 -0.141411642676766 -2.19264078977919e-18 velocity 0.207300382169627 -0.116425065466187 -1.25343980127754 angularVelocity -0.280500903993525 -0.499445238565668 4.97610304569002e-17 force 0 0 -1 torque 0 0 0 radius 0.5 invMass 1
BaseParticle id 55 indSpecies 0 position 7.73862106120482 8.94960056032507 -0.977028504860842 orientation -0.559270112252043 0.482286899809682 -0.338826330887213 -0.58293482080852 velocity -0.455279477527683 -0.0690688164844745 -5.52748935487402 angularVelocity -0.204817728950397 0.0777867982265155 0.216480681305177 force 0 0 -1 torque 0 0 0 radius 0.5 invMass 1
BaseParticle id 56 indSpecies 0 position 8.75787990197633 5.11917104832334 13.2579537102991 orientation -0.61914727195236 -0.689252624704834 -0.365862099757241 0.0879340601398012 velocity 0.0374836162786462 0.108468143676995 -0.163924068916605 angularVelocity -0.135830425059188 0.0687402063111659 0.0778207346738356 force 1.32908399477463 0.862401688847529 -0.0204125455295043 torque 0.0126095297016184 -0.042219242862695 0.0310143991057518 radius 0.5 invMass 1
BaseParticle id 57 indSpecies 0 position 12.1911193839135 9.79044421499503 8.8453654642722 orientation 0.582721896432232 0.221798892833759 -0.369436687799105 -0.68902610709912 velocity 0.153696254455863 -0.0487262489334317 -2.23831854850778 angularVelocity 0.746624066794312 -0.805717237961499 -0.0711915232680022 force 0 0 -1 torque 0 0 0 radius 0.5 invMass 1
BaseParticle id 58 indSpecies 0 position 10.1508338250513 13.5910052732214 11.1656845795576 orientation -0.0184637532427254 0.641785703193738 -0.0400606176942614 -0.765614359780605 velocity -0.0437415483308147 -0.127559660123579 -0.0650273727358302 angularVelocity 0.605708474228993 0.0945830813754957 0.0898957284253031 force -2.50295173341401 -0.994597327150201 0.041429098859485 torque -0.260784508551456 0.265395013097365 -0.0795707726302761 radius 0.5 invMass 1
BaseParticle id 59 indSpecies 0 position 11.9852264767644 7.51465814277114 10.5852926093987 orientation -0.384196726505279 -0.866232323505131 -0.255881530503683 0.191204287097916 velocity -0.14141295501874 0.037127445216271 -0.545254901001757 angularVelocity -0.41261775139992 -0.491061717515417 -0.0964399691721039 force 3.74700647301207 -0.181874267877616 4.83713324073174 torque 1.0488185563283 1.50348892056207 -0.339528030791761 radius 0.5 invMass 1
BaseParticle id 60 indSpecies 0 position 9.95087383747748 11.8076199613856 -0.54964084648731 orientation -0.3214540576748 0.447403176325666 0.0170689592399943 0.834389799343553 velocity -0.00917522342670497 -0.360430946585349 -5.20189720713958 angularVelocity 0.331487064128942 -0.634098255356375 0.257302229534702 force 0 0 -1 torque 0 0 0 radius 0.5 invMass 1
BaseParticle id 61 indSpecies 0 position 8.27985416653762 11.4331709786 -2.69011253417746 orientation 0.721925032643177 0.139927659672884 0.35414953088585 0.577773837305696 velocity -0.0676864873678176 0.299901739876924 -5.98415732516177 angularVelocity -0.335345720265015 0.0262197350361844 0.79024588849329 force 0 0 -1 torque 0 0 0 radius 0.5 invMass 1
BaseParticle id 1040 indSpecies 0 position 11.9853348311606 16.7289494187683 17.7682922119466 orientation 0.992476866890779 0.0971741013289979 -0.0209602273775753 0.0714669964798074 velocity -0.200587427384252 -0.294407662079476 -0.504105838130072 angularVelocity 0.650070113466012 -0.271913648661886 -0.0152323397028435 force -0.0191458955650911 -2.36605110768858 2.10234512085028 torque -0.110830187914949 -0.188391432094852 -0.115735481559976 radius 0.5 invMass 1
BaseParticle id 63 indSpecies 0 position 10.1147869808338 7.92327476058576 6.38971131727729 orientation 0.154637672401565 -0.775918735297297 -0.282318101834744 -0.54252538730026 velocity -0.53861335903233 0.149667288247047 -3.04408285962935 angularVelocity -0.0255889390033391 -0.79310259749175 0.00667373993688966 force 0 0 -1 torque 0 0 0 radius 0.5 invMass 1
BaseParticle id 64 indSpecies 0 position 11.5022568402369 5.47615481767586 12.8648771124326 orientation 0.566462505503569 -0.775925602773462 -0.210096548280522 -0.181436295210933 velocity 0.0382822326788654 0.156278495089867 -0.150602135974842 angularVelocity -0.0611962832575248 0.0891284520974281 0.111693512394789 force 1.37818393642984 -0.479701330997516 -0.345888413094794 torque -0.00853466775452438 -0.0202701400872065 -0.0238329100560492 radius 0.5 invMass 1
BaseParticle id 1176 indSpecies 0 position 8.91370270264438 8.96805028478303 18.5572695961519 orientation 1 0 0 0 velocity 0 0 -0.675 angularVelocity 0 0 0 force 0 0 -1 torque 0 0 0 radius 0.5 invMass 1
BaseParticle id 66 indSpecies 0 position 9.71548574774565 7.92389960714353 0.556971748078024 orientation 0.140868980455623 -0.899550837304474 0.376675674179688 -0.170527587010108 velocity 0.0729989799999358 0.0602203368172033 -4.86419603739102 angularVelocity -0.455661035934203 0.282599698279591 0.227142679707067 force 0 0 -1 torque 0 0 0 radius 0.5 invMass 1
BaseParticle id 1175 indSpecies 0 position 5.74667634418946 6.18088008913565 18.5923597549228 orientation 1 0 0 0 velocity 0 0 -0.675 angularVelocity 0 0 0 force 0 0 -1 torque 0 0 0 radius 0.5 invMass 1
BaseParticle id 68 indSpecies 0 position 14.2174829446892 11.6480737840959 12.5289682756517 orientation 0.893896558708974 -0.324316303239176 -0.0367281122371855 0.307276623831072 velocity -0.0194507315902709 -0.0436440298598754 -0.211399100781444 angularVelocity 0.000861411566016438 -0.0797279271561523 -0.0493346035743088 force 1.41915692236449 1.15542904611311 0.118645347490368 torque -0.0410859927339853 -0.257468057567749 0.264687589792001 radius 0.5 invMass 1
BaseParticle id 69 indSpecies 0 position 10.6178161285862 7.78674546422925 -3.14902021030282 orientation -0.138437490213517 -0.682792339332989 -0.708196350946093 -0.114401097714165 velocity 0.115463306907314 -0.166748889640036 -5.83663150726795 angularVelocity 0.0736553131607182 -0.0365127894393057 0.331628375747553 force 0 0 -1 torque 0 0 0 radius 0.5 invMass 1
BaseParticle id 70 indSpecies 0 position 7.62407163153718 12.1631977680395 10.6362928647391 orientation -0.214135308526843 0.828489923458844 0.511430832349264 -0.0786703253572259 velocity 0.121953149224575 -0.126313569765337 -0.223670313148973 angularVelocity 0.567724688725662 -0.0050627512258255 0.558765379599667 force 1.07955912542518 0.449402318600036 0.0883739930911229 torque -0.0521684783263483 0.279670928274022 0.0952954568802085 radius 0.5 invMass 1
BaseParticle id 71 indSpecies 0 position 12.6359935344937 11.1693956094087 4.77398759385462 orientation -0.711910408864976 -0.561243144794119 0.273742471824363 0.321332789006658 velocity 0.526795787160231 -0.331764920057182 -3.85392203316636 angularVelocity 2.17781177895479 -0.765358311475216 -0.21008602211495 force 0 0 -1 torque 0 0 0 radius 0.5 invMass 1
BaseParticle id 1174 indSpecies 0 position 14.8002817646539 4.41459416807163 18.4379710301504 orientation 1 0 0 0 velocity -0.00884720933757065 0.0115848197602685 -0.668935135171074 angularVelocity -0.00939886591014094 -0.0214823668405831 0.0207292430538999 force -1.76944186751413 2.31696395205371 0.212972965785357 torque -0.187977318202819 -0.429647336811661 0.414584861077997 radius 0.5 invMass 1
BaseParticle id 73 indSpecies 0 position 12.7140846748012 12.378897380827 11.2044799779078 orientation -0.209570736567113 0.542484471343173 -0.797338601881323 0.161374901010576 velocity -0.0866892933103214 -0.0614289251786638 -0.485718540913609 angularVelocity -0.244306351335637 -0.321153550221345 0.226150865391145 force 1.82778723421118 1.74809522989895 -0.319619751935882 torque -0.236920127355755 -0.515486750636785 0.208146115775796 radius 0.5 invMass 1
BaseParticle id 1039 indSpecies 0 position 7.09858072604067 13.1304357187373 17.694590713145 orientation 0.984783446386381 0.101315186485311 -0.141060283933703 0.00622840327457382 velocity -0.138143941429264 -0.0997123043547649 -1.30593157827488 angularVelocity 0.270913261559985 -0.377485173242276 0.0164608223738059 force 0 0 -1 torque 0 0 0 radius 0.5 invMass 1