restart_version 1.0 name AxisymmetricHopperSelfTest
dataFile    fileType ONE_FILE saveCount 16 counter 49 lastSavedTimeStep 775
fStatFile   fileType NO_FILE saveCount 16 counter 0
eneFile     fileType ONE_FILE saveCount 16 counter 49 lastSavedTimeStep 775
restartFile fileType ONE_FILE saveCount 16 counter 49 lastSavedTimeStep 775
statFile    fileType ONE_FILE saveCount 16 counter 0
interactionFile fileType NO_FILE saveCount 0 counter 0
xMin 0 xMax 20 yMin 0 yMax 20 zMin 0 zMax 19.4280904158206
timeStep 0.01 time 7.74999999999988 ntimeSteps 775 timeMax 7.74596669241483
systemDimensions 3 particleDimensions 3 gravity 0 0 -1 writeVTK 0 NO_FILE NO_FILE random  0 1103515245 12345 1073741824 607 273 784607267 xBallsArguments -sort -v0 -solidf
Species 1
LinearViscoelasticFrictionSpecies id 0 density 1.90985931710274 stiffness 501.700317749126 dissipation 4.05465108108166 slidingStiffness 143.342947928322 slidingDissipation 1.1584717374519 slidingFrictionCoefficient 0.4 slidingFrictionCoefficientStatic 0.4 rollingStiffness 143.342947928322 rollingDissipation 1.1584717374519 rollingFrictionCoefficient 0.1 rollingFrictionCoefficientStatic 0.1 torsionStiffness 0 torsionDissipation 0 torsionFrictionCoefficient 0 torsionFrictionCoefficientStatic 0
Walls 1
AxisymmetricIntersectionOfWalls id 0 indSpecies 0 position 10 10 0 orientation 0.707106781186548 0 -0.707106781186548 0 velocity 0 0 0 angularVelocity 0 0 0 force 51.4265996622006 -43.41509653641 -1145.62917400327 torque 717.512977256047 1176.24612410002 -27.0020170468556 numIntersectionOfWalls 3 position 3.33333333333333 0 10 orientation 0.953020613871422 0 0.302905446527686 0 position 10 0 19.4280904158206 orientation 0 0 1 0 position 10 0 10 orientation 0.707106781186547 0 -0.707106781186547 0
Boundaries 0
Particles 1200
BaseParticle id 0 indSpecies 0 position 10.6960150275777 10.062904047623 -3.53521476477094 orientation -0.620665317515201 0.623777338907766 0.389179863428308 -0.272425088787404 velocity 0.561595734396846 -0.0596557746324817 -6.16058618816818 angularVelocity -0.0319913198575735 0.404049879906592 -0.123935558035875 force 0 0 -1 torque 0 0 0 radius 0.5 invMass 1
BaseParticle id 1186 indSpecies 0 position 6.99231214391716 4.64382547835347 18.7178640213573 orientation 1 0 0 0 velocity 0 0 -0.615 angularVelocity 0 0 0 force 0 0 -1 torque 0 0 0 radius 0.5 invMass 1
BaseParticle id 1050 indSpecies 0 position 11.2316888343716 12.4870681645193 17.8480215184453 orientation 0.977547441170439 -0.17688410421965 0.107345937563715 -0.0398730939871115 velocity -0.0480920356529862 0.0690184947989809 -1.3822564614251 angularVelocity -0.326925351663298 0.0207012123093783 -0.189645104273826 force 0 0 -1 torque 0 0 0 radius 0.5 invMass 1
BaseParticle id 1049 indSpecies 0 position 8.46133313430666 11.3718630976254 17.4121661804775 orientation 0.997434808738206 -0.0702506236491364 0.0116264303129595 -0.00731288673936612 velocity -0.0332295707407237 -0.195939922077557 -1.63654927283028 angularVelocity -0.271263672644121 0.0448910962990336 -0.0282374700289242 force 0 0 -1 torque 0 0 0 radius 0.5 invMass 1
BaseParticle id 4 indSpecies 0 position 10.1939395709707 11.8279027433929 -2.07458434110763 orientation 0.839897431809257 0.326138608991062 -0.398475908214684 -0.171530936970775 velocity -0.0684590667896109 0.0837326247126525 -5.73700867904371 angularVelocity -0.0929035051788547 -0.0229676911143966 0.0607136363915708 force 0 0 -1 torque 0 0 0 radius 0.5 invMass 1
BaseParticle id 5 indSpecies 0 position 11.2998717028164 6.87343268173534 3.5155685389138 orientation -0.60146673563339 -0.446053869782904 -0.229436652666277 -0.621797823726896 velocity 0.203349267421738 -0.417618442493861 -4.08675721286475 angularVelocity -0.973702047348691 -0.704765948691285 0.582930006208984 force 0 0 -1 torque 0 0 0 radius 0.5 invMass 1
BaseParticle id 1048 indSpecies 0 position 5.23939138322251 7.61853726871482 16.7337523328986 orientation 0.918100116908229 0.258280060009944 0.273716291537255 0.124350221879365 velocity 0.865462412903273 0.0740262911676266 -0.852760180691248 angularVelocity 0.741551404983219 0.741753565211248 0.541046407930006 force 0 0 -1 torque 0 0 0 radius 0.5 invMass 1
BaseParticle id 7 indSpecies 0 position 6.62681132475806 8.28803398455778 -1.8932304929156 orientation -0.86748641576611 -0.164271747666295 0.0519613736887415 -0.466671326550399 velocity -0.916033035196073 0.282395360258942 -5.47737008310465 angularVelocity -1.07575158199122 -0.161359711258723 0.0681892256239431 force 0 0 -1 torque 0 0 0 radius 0.5 invMass 1
BaseParticle id 1185 indSpecies 0 position 9.92809362281587 17.5081988218361 18.7157127805526 orientation 1 0 0 0 velocity 0 0 -0.615 angularVelocity 0 0 0 force 0 0 -1 torque 0 0 0 radius 0.5 invMass 1
BaseParticle id 9 indSpecies 0 position 7.13892582082337 10.6602721346508 10.9967118213214 orientation 0.530564577363381 -0.76995042188933 0.346454469347389 -0.0751457101162675 velocity 0.336810336249187 -0.177423792088627 -0.744901148781468 angularVelocity -0.268631368596011 -0.073202904711837 -0.484783949076442 force 1.34671415444555 1.0084855964891 1.29833709104073 torque -0.113979314666326 -0.341661111029685 0.0446092848724196 radius 0.5 invMass 1
BaseParticle id 1184 indSpecies 0 position 6.74686112565456 18.2615046222736 18.7290097169401 orientation 0.998911798762616 0.0433960314526083 0.0170880878684235 1.20394353249535e-17 velocity 0.09208922289481 -0.233865066937892 -0.221897446654863 angularVelocity 0.435663015238502 0.17155135242143 1.34532033560978e-17 force 0 0 -1 torque 0 0 0 radius 0.5 invMass 1
BaseParticle id 1047 indSpecies 0 position 13.43802776068 5.6811449882889 17.5203194845539 orientation 1 0 0 0 velocity 0 0 -1.67499999999999 angularVelocity 0 0 0 force 0 0 -1 torque 0 0 0 radius 0.5 invMass 1
BaseParticle id 12 indSpecies 0 position 12.0572305841506 6.77809278333521 11.449130805539 orientation 0.990131501988062 -0.0899600297021329 -0.0841267816915888 0.0668542177358449 velocity -0.0482988983716749 0.0565790563008277 -0.331379347848042 angularVelocity -0.376793452989378 -0.164970049400354 0.0865196185267784 force 0.0258484817167499 0.143385486612125 1.62018420183655 torque -0.0100381498471918 0.0775098268239419 -0.0379636776597586 radius 0.5 invMass 1
BaseParticle id 1046 indSpecies 0 position 10.289953530961 16.5836744529984 17.0074653982613 orientation 0.979019259096227 -0.0411547487755522 -0.165524155320231 0.111486909444204 velocity 0.276829093148044 -0.665703331742419 -0.788221067016025 angularVelocity 0.312608958610045 1.02114794767114 0.135791091000162 force -4.74607736209499 -0.112809290532893 6.99101181372313 torque -0.707548085738564 0.504671763846835 0.838374635641587 radius 0.5 invMass 1
BaseParticle id 14 indSpecies 0 position 9.25012884685658 8.96229123711752 0.00205206318250819 orientation 0.468425271895686 -0.214968821348539 0.132735324974138 -0.846609416437995 velocity -0.106792460009084 -0.149352345394237 -5.27992442863526 angularVelocity -0.185078529078705 0.19807643036434 0.318854753775472 force 0 0 -1 torque 0 0 0 radius 0.5 invMass 1
BaseParticle id 15 indSpecies 0 position 13.6189051069081 12.4006386676432 12.2785487711492 orientation 0.113142017320366 0.884593132594069 -0.304375892103555 -0.334737494150647 velocity -0.0145357355396817 -0.0316278886359877 -0.116795455231761 angularVelocity -0.0110201822887528 -0.0724397443968805 0.0556545081456458 force 0.603280207405673 -0.315054191803667 -0.662707191540271 torque 0.148486587982302 -0.0248247619100659 0.118754077526999 radius 0.5 invMass 1
BaseParticle id 16 indSpecies 0 position 7.84436677919994 12.9524837807634 11.2968233343747 orientation -0.693728764686724 -0.500229183572975 0.51311164953001 0.0723021442610054 velocity 0.0992885897173686 -0.154877808784136 -0.129012334536217 angularVelocity 0.249434780397757 0.187916836753374 0.0103273685893677 force 0.333108057921289 0.77543353166587 -0.0164542067191042 torque -0.226156786898174 -0.172806134144686 0.102563720529327 radius 0.5 invMass 1
BaseParticle id 1045 indSpecies 0 position 9.28537551560597 6.07380802229123 17.5625251784621 orientation 0.995356515424324 0.0425634713718287 0.0769465044106803 -0.0391534617384545 velocity 0.345747991880119 0.338164658131357 -0.707295240287711 angularVelocity 0.550021183550584 1.11246345690896 -0.517400915130672 force 0 0 -1 torque 0 0 0 radius 0.5 invMass 1
BaseParticle id 1044 indSpecies 0 position 4.56273730755822 14.094681317938 17.5937846713762 orientation 0.997400277962056 -0.0365411449199906 -0.0611390059740392 0.0109294189074964 velocity 0.489053543821795 0.27738033500662 -0.867565263248946 angularVelocity -0.190973054575796 -0.737482076251526 -0.159179143894851 force -0.408780041755732 2.65139777576173 1.66321036299729 torque 0.178283747736571 -0.098538434225352 -0.123668508735134 radius 0.5 invMass 1
BaseParticle id 19 indSpecies 0 position 10.728545430092 5.68996186759066 12.2928929437409 orientation -0.627554807024729 -0.77724211531616 0.0260454367069864 -0.0373000480664235 velocity 0.0119223613577695 0.0658813454883428 -0.193647144065064 angularVelocity -0.274881309215198 -0.0421781552910167 -0.0069138918008509 force 1.04491303804789 -0.939449422214089 0.833622038061222 torque -0.0837987613890677 -0.203629959642979 0.0345694027810597 radius 0.5 invMass 1
BaseParticle id 1043 indSpecies 0 position 9.78955489126947 14.7544272530677 17.3310066371033 orientation 0.997476375910636 -0.00953299498713044 0.0697002989413586 0.00958487528578474 velocity 0.0487170316901718 -0.727343248997576 -1.11472522205295 angularVelocity 0.107453825667016 0.461967364145076 0.138606584330947 force 0 0 -1 torque 0 0 0 radius 0.5 invMass 1
BaseParticle id 21 indSpecies 0 position 9.48638594895896 11.6597808965848 -2.77308985687094 orientation -0.650210454773695 -0.407198851533966 0.313571531921476 0.559542986892717 velocity -0.0135818138978057 0.0988595564007385 -5.70219838721643 angularVelocity 0.633059510337746 0.00759302440903963 0.797354802685708 force 0 0 -1 torque 0 0 0 radius 0.5 invMass 1
BaseParticle id 1183 indSpecies 0 position 9.21632192450634 10.821235504398 18.7029649334663 orientation 1 0 0 0 velocity 0 0 -0.635 angularVelocity 0 0 0 force 0 0 -1 torque 0 0 0 radius 0.5 invMass 1
BaseParticle id 23 indSpecies 0 position 7.22009944713386 10.2217480241245 9.92162353039884 orientation -0.131272912519277 0.419591389910416 0.6846020052331 -0.581403975203618 velocity 0.320641631854182 -0.23248284513112 -1.21248962109856 angularVelocity -0.366549326210161 0.46904958423706 0.320413548742629 force 0 0 -1 torque 0 0 0 radius 0.5 invMass 1
BaseParticle id 24 indSpecies 0 position 12.6944562923188 5.06158839717382 14.0946054803076 orientation -0.860154613968909 -0.393439518678833 0.305677657024896 0.109089665897075 velocity 0.0498123472551521 0.0659276761643218 -0.0994923291243215 angularVelocity -0.0178471755513707 -0.0863608516307992 -0.0356450755270635 force -0.10342254902107 -0.281323654918118 -0.663901124760077 torque -0.156064204934945 -0.141060135556003 0.0363601647719915 radius 0.5 invMass 1
BaseParticle id 25 indSpecies 0 position 10.5248474604828 8.48897695391105 1.93708744637432 orientation 0.0718070906667061 -0.95806043804279 -0.277219932098151 -0.0106324049366415 velocity 0.323547247142264 0.0291699768722925 -4.79443850367505 angularVelocity -0.605619670456333 -0.125490751973978 -0.272446635685037 force 0 0 -1 torque 0 0 0 radius 0.5 invMass 1
BaseParticle id 26 indSpecies 0 position 7.04758806090256 12.3832748455877 11.4337124960775 orientation 0.178397215789888 0.16923568612714 0.92459765307918 -0.290951707092372 velocity 0.202161767314908 -0.154104588794242 -0.223294745095099 angularVelocity 0.307529238407285 0.180186957340336 0.110732652501577 force -0.710491772274873 0.0999486466568698 -1.6970322548591 torque 0.0252801862605096 -0.0776584864076968 0.170663990553635 radius 0.5 invMass 1
BaseParticle id 1182 indSpecies 0 position 9.08146351339453 7.76191927793563 18.6501351263737 orientation 1 0 0 0 velocity 0 0 -0.645 angularVelocity 0 0 0 force 0 0 -1 torque 0 0 0 radius 0.5 invMass 1
BaseParticle id 1181 indSpecies 0 position 15.7330431322261 12.9282676730468 18.7033027953056 orientation 1 0 0 0 velocity 0 0 -0.655 angularVelocity 0 0 0 force 0 0 -1 torque 0 0 0 radius 0.5 invMass 1
BaseParticle id 29 indSpecies 0 position 10.0833909460936 6.05792857193911 11.6331699785783 orientation 0.924843397614156 0.33837105579127 0.075177207727607 -0.156582585016614 velocity -0.0670750095134187 -0.0258235563809711 -0.171795334051946 angularVelocity -0.298796110159165 0.0911137877644598 0.165630798060971 force 1.84151692591347 -0.074203422579318 0.59056669750885 torque -0.0947935193232418 -0.0772313906047105 0.00676600637125047 radius 0.5 invMass 1
BaseParticle id 30 indSpecies 0 position 7.48567350031358 12.780215218538 -0.996417969428463 orientation -0.638227650056122 0.659436245579224 0.246325082642704 -0.311662090061148 velocity -0.412072824095684 0.295085458450541 -5.3242699349427 angularVelocity 0.278872690182371 0.773901031853774 -0.169299289434559 force 0 0 -1 torque 0 0 0 radius 0.5 invMass 1
BaseParticle id 31 indSpecies 0 position 6.98375964997712 8.98224665461784 10.5643918804666 orientation -0.877978922966044 0.00924225549394411 -0.126218051552612 -0.461667190737042 velocity 0.474024941926928 0.167197877065404 -0.633572189298026 angularVelocity -0.47945561812787 1.12996298508762 -0.00262198561025802 force -2.04916351542125 -0.997234964286972 0.120120408285008 torque 0.277653679351576 -0.0555912133177016 0.36278961929454 radius 0.5 invMass 1
BaseParticle id 32 indSpecies 0 position 12.4417667244563 6.54893148074389 3.11349856858104 orientation -0.274164198113014 -0.862719634793705 -0.188153944856872 0.380981518251558 velocity 0.162999425514438 -1.01175043825222 -4.30206502678633 angularVelocity -0.309771090399584 -0.221136317974728 -0.772709878843023 force 0 0 -1 torque 0 0 0 radius 0.5 invMass 1
BaseParticle id 1042 indSpecies 0 position 12.9299609606396 17.5839113488197 17.7827680483522 orientation 0.992945693853023 0.117261623559997 0.0152660255069329 0.00868960091334009 velocity 0.0151613787998354 -0.676945822289957 -0.0824002975255882 angularVelocity 1.0207917175082 0.0801362732308163 0.0657406741703366 force 0 0 -1 torque 0 0 0 radius 0.5 invMass 1
BaseParticle id 34 indSpecies 0 position 8.45173425522861 11.4089440236983 -1.34211715429763 orientation 0.859863709879359 0.257384865399196 -0.339240703400223 0.281608197061918 velocity -0.381148123213074 -0.117189407693805 -5.7165324742591 angularVelocity -0.082786647411461 -0.386506576354052 0.142397676010943 force 0 0 -1 torque 0 0 0 radius 0.5 invMass 1
BaseParticle id 35 indSpecies 0 position 11.6727790727228 8.12333055751954 0.520123964362639 orientation -0.841410030156578 -0.100872545654103 -0.472024172928546 0.242996030536076 velocity -0.147023338485345 -0.116119140306606 -4.88989362999039 angularVelocity -0.651077154429896 -0.850968027629668 0.456834615718456 force 0 0 -1 torque 0 0 0 radius 0.5 invMass 1
BaseParticle id 1180 indSpecies 0 position 5.65002970530956 6.90599412068434 17.7057340177031 orientation 0.998961223065806 0.00517388280578749 -0.0452554844085722 0.00128330765108175 velocity 0.0372519811698709 0.0013791923095004 -0.87744424801351 angularVelocity 0.0352827218256245 -0.248909827023517 0.00385410092490662 force 0 0 -1 torque 0 0 0 radius 0.5 invMass 1
BaseParticle id 37 indSpecies 0 position 9.82606474828584 9.66103764392476 -2.18597085146468 orientation 0.324288149652288 -0.660081508219622 -0.63105542316388 -0.246776521162487 velocity -0.0381253664694596 0.143167115516788 -5.86127324131843 angularVelocity -0.437781358702274 -0.40591381916143 0.00706490977937385 force 0 0 -1 torque 0 0 0 radius 0.5 invMass 1
BaseParticle id 38 indSpecies 0 position 13.3763297797147 8.85678808449789 -0.98796271936317 orientation -0.0617099146713914 -0.825518776437533 -0.533978237613194 -0.171982202381047 velocity 0.491141792694862 -0.227169859978505 -5.39960826386027 angularVelocity -0.665995738702362 -0.241381698403268 -0.536179633046838 force 0 0 -1 torque 0 0 0 radius 0.5 invMass 1
BaseParticle id 39 indSpecies 0 position 11.178690985867 7.54437863625752 7.52812291277084 orientation -0.37246053486226 -0.345941899796971 -0.741837374425283 0.437349587676477 velocity -0.530792703094886 -0.264358790777223 -2.56681158001845 angularVelocity -0.86328836671167 0.339460641143903 0.300229831966774 force 0 0 -1 torque 0 0 0 radius 0.5 invMass 1
BaseParticle id 40 indSpecies 0 position 6.68413535816137 11.5010206883376 11.2665812306443 orientation -0.802281396286112 -0.0425351681197707 0.339290070399429 -0.48930314609103 velocity 0.245866469320017 -0.182958586528253 -0.641124796124753 angularVelocity 0.199490140475886 -0.0682438586940232 0.140170182350567 force -0.792876660777121 -0.559671527615222 -0.041914000495467 torque -0.0472570375366164 -0.0504446298962514 -0.100458154731733 radius 0.5 invMass 1
BaseParticle id 41 indSpecies 0 position 12.8251912059095 7.38483528452657 11.548849746778 orientation 0.802863379709806 -0.414913474794918 -0.427805071699773 -0.0154926622149374 velocity -0.0956298313556657 0.184993602310654 -0.475379876115625 angularVelocity -0.250831889524088 -0.0368495310621867 0.161821481309891 force 0.0231500220554421 -0.114224073031387 -1.09243452653109 torque 0.0801050643491001 -0.0571438703503161 -0.0995269327341564 radius 0.5 invMass 1
BaseParticle id 42 indSpecies 0 position 8.57227355743986 8.06223399956985 -1.32822289049438 orientation 0.831727113998115 -0.225351386912183 0.182089534516225 -0.473592822661816 velocity -0.230476316724218 -0.190479045867931 -5.50162821827677 angularVelocity 0.0170142175696664 -0.239642015048612 0.0604871956203515 force 0 0 -1 torque 0 0 0 radius 0.5 invMass 1
BaseParticle id 43 indSpecies 0 position 9.19082717797148 8.670995538387 -2.96414802989173 orientation -0.0270278067982583 -0.425191979421488 0.842224874586685 0.330361224908062 velocity 0.115146194348222 -0.24264879722867 -6.03244349452704 angularVelocity -0.277720272404291 -0.064984146661024 -0.456985218352169 force 0 0 -1 torque 0 0 0 radius 0.5 invMass 1
BaseParticle id 44 indSpecies 0 position 11.8578486489595 12.6572159086899 10.698230152592 orientation -0.0724081777838015 0.283089409119218 -0.852298235785304 -0.433826185830017 velocity -0.0754888000336466 -0.337514417573702 -0.585275295166036 angularVelocity 0.444757619577694 -0.662233033146202 0.389974551117146 force 1.48970582198896 -1.94594713103947 5.14598913031675 torque 0.0651645703962771 -0.595759781317422 -0.272680989309668 radius 0.5 invMass 1
BaseParticle id 45 indSpecies 0 position 6.08239947000705 9.36670217436279 11.6938625030313 orientation -0.660887736131088 -0.279592312799647 0.45666380407443 0.525845708267301 velocity 0.0444783818657401 -0.157307600348386 -0.237460450840747 angularVelocity -0.160688611757622 0.316031595463741 -0.171418933698393 force -0.0725305172356734 0.235309153432227 -0.131473598541775 torque -0.0322101923666916 0.207943516951236 0.0496013353706108 radius 0.5 invMass 1
BaseParticle id 46 indSpecies 0 position 10.928970423932 8.47875005431601 6.72449800143199 orientation 0.419886180205362 0.17503261318129 -0.64535622985857 -0.613656676471634 velocity -0.213326109311645 -0.157826293935274 -3.16947872989395 angularVelocity 0.346897997209631 -0.768412487366974 -0.663407847364322 force 0 0 -1 torque 0 0 0 radius 0.5 invMass 1
BaseParticle id 47 indSpecies 0 position 7.50644363634926 10.0657665685189 -0.919837403915751 orientation -0.63463293408441 0.255396727050384 0.667306914550578 0.294474162840057 velocity -0.45779667172685 0.0175234938098221 -5.64694016963316 angularVelocity 0.419529445960618 0.277119178415901 0.00946782153767813 force 0 0 -1 torque 0 0 0 radius 0.5 invMass 1
BaseParticle id 48 indSpecies 0 position 9.77347982804185 8.27808613439391 7.35535583503889 orientation 0.172240242640373 -0.750041158463701 0.634287913179211 -0.0738268421400797 velocity -0.208825882860143 0.602502292238885 -3.06368967303064 angularVelocity 0.0157997052557723 -0.757658352700105 -1.02553462031111 force 0 0 -1 torque 0 0 0 radius 0.5 invMass 1
BaseParticle id 1179 indSpecies 0 position 10.1968668468748 2.86392337414993 18.6788069946338 orientation 1 0 0 0 velocity 0 0 -0.665 angularVelocity 0 0 0 force 0 0 -1 torque 0 0 0 radius 0.5 invMass 1
BaseParticle id 50 indSpecies 0 position 10.4257115630041 10.9819420316691 1.03034934606659 orientation 0.737949751514551 0.497600560870084 -0.454435105271699 0.0362295619362086 velocity -0.177575675280202 0.0054367135471394 -5.16937506407275 angularVelocity 0.133510181884362 -0.180873859983282 -0.234350412023741 force 0 0 -1 torque 0 0 0 radius 0.5 invMass 1
BaseParticle id 1041 indSpecies 0 position 8.69978362461342 9.91793841982898 17.4845175054511 orientation 0.999433336314151 -0.0223081941899531 0.0252061646417657 -1.08360007082469e-17 velocity 0.0831760799496457 0.0736132676210981 -1.57152801842898 angularVelocity -0.225166368641008 0.254416852902861 -2.76491203331046e-16 force 0 0 -1 torque 0 0 0 radius 0.5 invMass 1
BaseParticle id 1178 indSpecies 0 position 4.31165364562384 16.4429953004543 18.4988576743157 orientation 1 0 0 0 velocity 0 0 -0.675 angularVelocity 0 0 0 force 0 0 -1 torque 0 0 0 radius 0.5 invMass 1
BaseParticle id 53 indSpecies 0 position 12.7133552599 8.17542349654746 10.7642514769312 orientation -0.111131908014637 -0.691241459701708 -0.711015499502403 -0.0655126161729594 velocity -0.355804282677608 0.270493496170717 -0.664124681298239 angularVelocity -0.725625295007944 -0.576386530534471 0.00355413491852851 force -1.28694989438557 1.53220215865893 2.33722171612363 torque -0.118424981565989 -0.338959888394765 0.206618554771694 radius 0.5 invMass 1
BaseParticle id 1177 indSpecies 0 position 14.0173853570344 7.21814928905288 17.0423939112143 orientation 0.986759931458981 -0.0794203058576696 -0.141411642676766 -2.19264078977919e-18 velocity 0.207300382169627 -0.116425065466187 -1.25343980127754 angularVelocity -0.280500903993525 -0.499445238565668 4.97610304569002e-17 force 0 0 -1 torque 0 0 0 radius 0.5 invMass 1
BaseParticle id 55 indSpecies 0 position 7.73862106120478 8.9496005603248 -0.977028504860623 orientation -0.559270112252212 0.482286899809454 -0.338826330887116 -0.582934820808603 velocity -0.455279477527727 -0.0690688164845923 -5.52748935487387 angularVelocity -0.204817728950098 0.0777867982264985 0.216480681305028 force 0 0 -1 torque 0 0 0 radius 0.5 invMass 1
BaseParticle id 56 indSpecies 0 position 8.75787990197633 5.11917104832334 13.2579537102991 orientation -0.619147271952313 -0.689252624704883 -0.365862099757238 0.0879340601397629 velocity 0.0374836162783174 0.10846814367644 -0.163924068916266 angularVelocity -0.135830425058972 0.0687402063104312 0.0778207346738417 force 1.32908399479074 0.862401688850551 -0.0204125455029092 torque 0.0126095297022276 -0.0422192428632615 0.0310143991046685 radius 0.5 invMass 1
BaseParticle id 57 indSpecies 0 position 12.1911193839131 9.7904442149954 8.84536546427229 orientation 0.582721896431631 0.221798892833908 -0.369436687799373 -0.689026107099437 velocity 0.153696254455863 -0.048726248931835 -2.23831854850814 angularVelocity 0.746624066796131 -0.80571723796395 -0.0711915232696698 force 0 0 -1 torque 0 0 0 radius 0.5 invMass 1
BaseParticle id 58 indSpecies 0 position 10.1508338250513 13.5910052732214 11.1656845795576 orientation -0.0184637532425926 0.641785703193772 -0.040060617694464 -0.765614359780569 velocity -0.0437415483308639 -0.12755966012335 -0.0650273727354098 angularVelocity 0.605708474229591 0.0945830813768255 0.089895728424949 force -2.50295173341077 -0.994597327148496 0.0414290988284076 torque -0.260784508546017 0.26539501309825 -0.0795707726306448 radius 0.5 invMass 1
BaseParticle id 59 indSpecies 0 position 11.9852264767645 7.51465814277119 10.5852926093987 orientation -0.38419672650544 -0.866232323505019 -0.255881530503608 0.191204287098201 velocity -0.141412955019974 0.0371274452169778 -0.545254901002573 angularVelocity -0.412617751407283 -0.491061717514923 -0.0964399691709742 force 3.7470064730112 -0.181874267827403 4.83713324076628 torque 1.04881855632439 1.50348892056256 -0.339528030788526 radius 0.5 invMass 1
BaseParticle id 60 indSpecies 0 position 9.95087383747748 11.8076199613856 -0.549640846487313 orientation -0.321454057674811 0.447403176325673 0.0170689592399817 0.834389799343546 velocity -0.00917522342670813 -0.360430946585343 -5.20189720713958 angularVelocity 0.33148706412896 -0.634098255356363 0.257302229534694 force 0 0 -1 torque 0 0 0 radius 0.5 invMass 1
BaseParticle id 61 indSpecies 0 position 8.27985416653762 11.4331709786 -2.69011253417746 orientation 0.721925032643178 0.139927659672883 0.35414953088585 0.577773837305696 velocity -0.0676864873678176 0.299901739876924 -5.98415732516177 angularVelocity -0.335345720265015 0.0262197350361847 0.79024588849329 force 0 0 -1 torque 0 0 0 radius 0.5 invMass 1
BaseParticle id 1040 indSpecies 0 position 11.9853348311605 16.7289494187682 17.7682922119464 orientation 0.992476866890824 0.0971741013285435 -0.0209602273774193 0.0714669964798479 velocity -0.200587427384818 -0.294407662080023 -0.504105838129613 angularVelocity 0.650070113466692 -0.271913648661689 -0.0152323397026516 force -0.0191458955517936 -2.36605110773253 2.10234512087458 torque -0.110830187912122 -0.188391432095847 -0.11573548156054 radius 0.5 invMass 1
BaseParticle id 63 indSpecies 0 position 10.1147869808335 7.92327476058592 6.38971131727734 orientation 0.154637672401926 -0.775918735297028 -0.282318101833999 -0.54252538730093 velocity -0.538613359032417 0.149667288247192 -3.04408285962935 angularVelocity -0.0255889390023913 -0.793102597492332 0.00667373993557013 force 0 0 -1 torque 0 0 0 radius 0.5 invMass 1
BaseParticle id 64 indSpecies 0 position 11.5022568402369 5.47615481767581 12.8648771124326 orientation 0.566462505503567 -0.77592560277347 -0.210096548280504 -0.181436295210923 velocity 0.0382822326787103 0.156278495089956 -0.150602135974884 angularVelocity -0.0611962832578029 0.0891284520975558 0.111693512395069 force 1.37818393642044 -0.479701330991019 -0.34588841310001 torque -0.00853466775447531 -0.0202701400883276 -0.0238329100556662 radius 0.5 invMass 1
BaseParticle id 1176 indSpecies 0 position 8.91370270264438 8.96805028478303 18.5572695961519 orientation 1 0 0 0 velocity 0 0 -0.675 angularVelocity 0 0 0 force 0 0 -1 torque 0 0 0 radius 0.5 invMass 1
BaseParticle id 66 indSpecies 0 position 9.71548574774565 7.92389960714353 0.556971748078024 orientation 0.140868980455623 -0.899550837304474 0.376675674179688 -0.170527587010108 velocity 0.0729989799999358 0.0602203368172033 -4.86419603739102 angularVelocity -0.455661035934203 0.282599698279591 0.227142679707067 force 0 0 -1 torque 0 0 0 radius 0.5 invMass 1
BaseParticle id 1175 indSpecies 0 position 5.74667634418946 6.18088008913565 18.5923597549228 orientation 1 0 0 0 velocity 0 0 -0.675 angularVelocity 0 0 0 force 0 0 -1 torque 0 0 0 radius 0.5 invMass 1
BaseParticle id 68 indSpecies 0 position 14.2174829446892 11.6480737840959 12.5289682756516 orientation 0.893896558708958 -0.32431630323921 -0.0367281122371872 0.307276623831082 velocity -0.019450731590662 -0.0436440298604131 -0.211399100780763 angularVelocity 0.000861411566524447 -0.0797279271561238 -0.0493346035742679 force 1.41915692234796 1.15542904609504 0.118645347495538 torque -0.0410859927283665 -0.257468057567094 0.264687589793564 radius 0.5 invMass 1
BaseParticle id 69 indSpecies 0 position 10.6178161285862 7.78674546422925 -3.14902021030283 orientation -0.138437490213525 -0.68279233933298 -0.708196350946101 -0.114401097714157 velocity 0.115463306907311 -0.166748889640028 -5.83663150726796 angularVelocity 0.0736553131606877 -0.0365127894393013 0.331628375747577 force 0 0 -1 torque 0 0 0 radius 0.5 invMass 1
BaseParticle id 70 indSpecies 0 position 7.62407163153721 12.1631977680395 10.6362928647392 orientation -0.214135308526829 0.828489923458825 0.511430832349309 -0.0786703253571744 velocity 0.121953149224633 -0.126313569765119 -0.223670313148463 angularVelocity 0.567724688726329 -0.00506275122682335 0.558765379600192 force 1.07955912541965 0.449402318605619 0.0883739930876946 torque -0.0521684783254277 0.27967092827364 0.0952954568819765 radius 0.5 invMass 1
BaseParticle id 71 indSpecies 0 position 12.6359935344937 11.1693956094087 4.77398759385468 orientation -0.711910408864875 -0.561243144794248 0.273742471824359 0.321332789006662 velocity 0.526795787160311 -0.331764920057084 -3.85392203316632 angularVelocity 2.17781177895496 -0.765358311475219 -0.210086022114964 force 0 0 -1 torque 0 0 0 radius 0.5 invMass 1
BaseParticle id 1174 indSpecies 0 position 14.8002817646539 4.41459416807163 18.4379710301504 orientation 1 0 0 0 velocity -0.00884720933758012 0.0115848197602735 -0.668935135171069 angularVelocity -0.00939886591015181 -0.0214823668405993 0.0207292430538956 force -1.76944186751602 2.3169639520547 0.212972965786334 torque -0.187977318203036 -0.429647336811986 0.414584861077912 radius 0.5 invMass 1
BaseParticle id 73 indSpecies 0 position 12.7140846748012 12.378897380827 11.2044799779079 orientation -0.209570736567031 0.542484471343107 -0.797338601881412 0.161374901010464 velocity -0.0866892933120808 -0.0614289251782487 -0.485718540914345 angularVelocity -0.244306351334325 -0.321153550220609 0.226150865391008 force 1.82778723423359 1.74809522987876 -0.319619751965605 torque -0.236920127356845 -0.515486750635051 0.208146115777881 radius 0.5 invMass 1
BaseParticle id 1039 indSpecies 0 position 7.09858072604067 13.1304357187373 17.694590713145 orientation 0.984783446386381 0.101315186485311 -0.141060283933703 0.00622840327457382 velocity -0.138143941429264 -0.0997123043547649 -1.30593157827488 angularVelocity 0.270913261559985 -0.377485173242276 0.0164608223738059 force 0 0 -1 torque 0 0 0 radius 0.5 invMass 1