MercuryDPM 0.14 name AxisymmetricHopperSelfTest revision 5000 repository https://svn.mercurydpm.org/SourceCode/MercuryLab
dataFile    fileType ONE_FILE saveCount 16 counter 49 lastSavedTimeStep 775
fStatFile   fileType NO_FILE saveCount 16 counter 0
eneFile     fileType ONE_FILE saveCount 16 counter 49 lastSavedTimeStep 775
restartFile fileType ONE_FILE saveCount 16 counter 49 lastSavedTimeStep 775
statFile    fileType ONE_FILE saveCount 16 counter 0
interactionFile fileType NO_FILE saveCount 0 counter 0
xMin 0 xMax 20 yMin 0 yMax 20 zMin 0 zMax 19.4280904158206
timeStep 0.01 time 7.74999999999988 ntimeSteps 775 timeMax 7.74596669241483
systemDimensions 3 particleDimensions 3 gravity 0 0 -1 writeVTK 0 NO_FILE NO_FILE 0 0 0 0 random  0 1103515245 12345 1073741824 607 273 784607267 xBallsArguments -sort -v0 -solidf
Species 1
LinearViscoelasticFrictionSpecies id 0 density 1.90985931710274 stiffness 501.700317749126 dissipation 4.05465108108166 slidingStiffness 143.342947928322 slidingDissipation 1.1584717374519 slidingFrictionCoefficient 0.4 slidingFrictionCoefficientStatic 0.4 rollingStiffness 143.342947928322 rollingDissipation 1.1584717374519 rollingFrictionCoefficient 0.1 rollingFrictionCoefficientStatic 0.1 torsionStiffness 0 torsionDissipation 0 torsionFrictionCoefficient 0 torsionFrictionCoefficientStatic 0
Walls 1
AxisymmetricIntersectionOfWalls id 0 indSpecies 0 position 10 10 0 orientation 0.707106781186548 0 -0.707106781186548 0 velocity 0 0 0 angularVelocity 0 0 0 force 51.426599665098 -43.4150965417879 -1145.62917401984 torque 717.512977347341 1176.24612416831 -27.0020170281753 numIntersectionOfWalls 3 position 3.33333333333333 0 10 orientation 0.953020613871422 0 0.302905446527686 0 position 10 0 19.4280904158206 orientation 0 0 1 0 position 10 0 10 orientation 0.707106781186547 0 -0.707106781186547 0
Boundaries 0
Particles 1200
BaseParticle id 0 indSpecies 0 position 10.6960150275809 10.0629040476223 -3.53521476478236 orientation -0.620665317528375 0.623777338895963 0.389179863430368 -0.272425088781471 velocity 0.56159573439874 -0.0596557746327423 -6.16058618817345 angularVelocity -0.0319913198430065 0.404049879910917 -0.123935558032793 force 0 0 -1 torque 0 0 0 radius 0.5 invMass 1
BaseParticle id 1186 indSpecies 0 position 6.99231214391716 4.64382547835347 18.7178640213573 orientation 1 0 0 0 velocity 0 0 -0.615 angularVelocity 0 0 0 force 0 0 -1 torque 0 0 0 radius 0.5 invMass 1
BaseParticle id 1050 indSpecies 0 position 11.2316888343716 12.4870681645193 17.8480215184453 orientation 0.977547441170439 -0.17688410421965 0.107345937563715 -0.0398730939871115 velocity -0.0480920356529862 0.0690184947989809 -1.3822564614251 angularVelocity -0.326925351663298 0.0207012123093783 -0.189645104273826 force 0 0 -1 torque 0 0 0 radius 0.5 invMass 1
BaseParticle id 1049 indSpecies 0 position 8.46133313430666 11.3718630976254 17.4121661804775 orientation 0.997434808738206 -0.0702506236491364 0.0116264303129595 -0.00731288673936612 velocity -0.0332295707407237 -0.195939922077557 -1.63654927283028 angularVelocity -0.271263672644121 0.0448910962990336 -0.0282374700289242 force 0 0 -1 torque 0 0 0 radius 0.5 invMass 1
BaseParticle id 4 indSpecies 0 position 10.1939395709669 11.8279027433937 -2.07458434110096 orientation 0.839897431810395 0.326138608986863 -0.398475908216128 -0.171530936969833 velocity -0.0684590667917601 0.083732624712879 -5.73700867903981 angularVelocity -0.0929035051852697 -0.0229676911122681 0.0607136363917296 force 0 0 -1 torque 0 0 0 radius 0.5 invMass 1
BaseParticle id 5 indSpecies 0 position 11.2998717028093 6.8734326817203 3.51556853890711 orientation -0.601466735628094 -0.446053869781526 -0.229436652680328 -0.621797823727823 velocity 0.203349267417059 -0.417618442502266 -4.08675721286794 angularVelocity -0.973702047342534 -0.704765948694547 0.582930006228876 force 0 0 -1 torque 0 0 0 radius 0.5 invMass 1
BaseParticle id 1048 indSpecies 0 position 5.23939138322466 7.61853726871394 16.7337523329026 orientation 0.91810011690672 0.258280060004241 0.273716291543713 0.124350221888143 velocity 0.865462412920478 0.0740262911595085 -0.852760180679594 angularVelocity 0.741551404912438 0.741753565202258 0.541046408012641 force 0 0 -1 torque 0 0 0 radius 0.5 invMass 1
BaseParticle id 7 indSpecies 0 position 6.62681132476206 8.288033984555 -1.89323049290606 orientation -0.867486415766488 -0.164271747668396 0.0519613736992921 -0.46667132654778 velocity -0.916033035194571 0.282395360257814 -5.47737008310124 angularVelocity -1.07575158198799 -0.161359711255371 0.0681892256142464 force 0 0 -1 torque 0 0 0 radius 0.5 invMass 1
BaseParticle id 1185 indSpecies 0 position 9.92809362281587 17.5081988218361 18.7157127805526 orientation 1 0 0 0 velocity 0 0 -0.615 angularVelocity 0 0 0 force 0 0 -1 torque 0 0 0 radius 0.5 invMass 1
BaseParticle id 9 indSpecies 0 position 7.13892582082913 10.6602721346657 10.9967118213104 orientation 0.530564577367221 -0.769950421884842 0.346454469348562 -0.0751457101297413 velocity 0.336810336222803 -0.177423792075214 -0.744901148829831 angularVelocity -0.268631368654181 -0.0732029047359402 -0.48478394908314 force 1.34671415498623 1.00848559817501 1.29833709094059 torque -0.113979314733914 -0.341661110784665 0.044609284892329 radius 0.5 invMass 1
BaseParticle id 1184 indSpecies 0 position 6.74686112565456 18.2615046222736 18.7290097169401 orientation 0.998911798762616 0.0433960314526083 0.0170880878684235 1.20394353249535e-17 velocity 0.09208922289481 -0.233865066937892 -0.221897446654863 angularVelocity 0.435663015238502 0.17155135242143 1.34532033560978e-17 force 0 0 -1 torque 0 0 0 radius 0.5 invMass 1
BaseParticle id 1047 indSpecies 0 position 13.43802776068 5.6811449882889 17.5203194845539 orientation 1 0 0 0 velocity 0 0 -1.67499999999999 angularVelocity 0 0 0 force 0 0 -1 torque 0 0 0 radius 0.5 invMass 1
BaseParticle id 12 indSpecies 0 position 12.0572305841507 6.77809278333551 11.4491308055347 orientation 0.990131501987651 -0.0899600297048397 -0.0841267816959292 0.0668542177328257 velocity -0.0482988983907296 0.056579056314666 -0.33137934781926 angularVelocity -0.376793453017216 -0.164970049413163 0.0865196184919301 force 0.0258484819725329 0.143385487119133 1.62018420163989 torque -0.0100381498682935 0.0775098268712052 -0.0379636776197008 radius 0.5 invMass 1
BaseParticle id 1046 indSpecies 0 position 10.2899535309612 16.5836744529984 17.0074653982615 orientation 0.979019259096273 -0.0411547487769876 -0.165524155319228 0.111486909444754 velocity 0.276829093151502 -0.665703331733634 -0.788221067002164 angularVelocity 0.31260895859696 1.02114794769987 0.135791091004303 force -4.74607736210339 -0.112809290342935 6.99101181376469 torque -0.707548085797366 0.50467176377612 0.838374635693334 radius 0.5 invMass 1
BaseParticle id 14 indSpecies 0 position 9.25012884684963 8.96229123711013 0.00205206318249337 orientation 0.468425271885757 -0.214968821330815 0.132735324992188 -0.846609416445159 velocity -0.106792460011171 -0.14935234539258 -5.27992442863355 angularVelocity -0.185078529049829 0.198076430342249 0.318854753727462 force 0 0 -1 torque 0 0 0 radius 0.5 invMass 1
BaseParticle id 15 indSpecies 0 position 13.6189051069097 12.4006386676425 12.2785487711514 orientation 0.113142017320203 0.884593132596815 -0.304375892102042 -0.334737494144822 velocity -0.0145357355283011 -0.0316278886356514 -0.116795455214203 angularVelocity -0.0110201823168142 -0.0724397444362296 0.0556545081837296 force 0.603280207322649 -0.315054192262723 -0.662707191985335 torque 0.148486588065169 -0.0248247618716064 0.118754077510846 radius 0.5 invMass 1
BaseParticle id 16 indSpecies 0 position 7.84436677920015 12.9524837807626 11.2968233343714 orientation -0.693728764686557 -0.50022918357518 0.513111649527626 0.0723021442642678 velocity 0.0992885897092798 -0.154877808745313 -0.129012334514432 angularVelocity 0.249434780324042 0.187916836720288 0.010327368564856 force 0.333108057491554 0.775433532319893 -0.0164542064044921 torque -0.22615678698549 -0.172806134287248 0.102563720605229 radius 0.5 invMass 1
BaseParticle id 1045 indSpecies 0 position 9.2853755156062 6.07380802229075 17.5625251784619 orientation 0.995356515424248 0.0425634713725082 0.0769465044110603 -0.0391534617388862 velocity 0.345747991880715 0.338164658126568 -0.707295240291972 angularVelocity 0.550021183556285 1.11246345691209 -0.517400915133678 force 0 0 -1 torque 0 0 0 radius 0.5 invMass 1
BaseParticle id 1044 indSpecies 0 position 4.56273730755849 14.0946813179379 17.5937846713775 orientation 0.99740027796196 -0.0365411449191964 -0.0611390059762266 0.0109294189066969 velocity 0.489053543817138 0.27738033500659 -0.867565263245239 angularVelocity -0.190973054571217 -0.737482076263341 -0.159179143905953 force -0.408780041791271 2.65139777568979 1.66321036303853 torque 0.178283747719197 -0.0985384342195551 -0.123668508736953 radius 0.5 invMass 1
BaseParticle id 19 indSpecies 0 position 10.7285454300926 5.68996186758965 12.2928929437403 orientation -0.627554807024095 -0.777242115316637 0.0260454367073848 -0.0373000480668885 velocity 0.011922361374543 0.0658813454858036 -0.193647144042807 angularVelocity -0.274881309220493 -0.0421781552629938 -0.006913891796223 force 1.04491303883839 -0.939449422134201 0.833622038168995 torque -0.0837987614723712 -0.203629959581585 0.0345694028360914 radius 0.5 invMass 1
BaseParticle id 1043 indSpecies 0 position 9.78955489127165 14.7544272530696 17.3310066371005 orientation 0.997476375910745 -0.00953299498179198 0.0697002989401315 0.0095848752887294 velocity 0.048717031694128 -0.72734324899419 -1.1147252220584 angularVelocity 0.107453825687312 0.461967364138253 0.138606584344667 force 0 0 -1 torque 0 0 0 radius 0.5 invMass 1
BaseParticle id 21 indSpecies 0 position 9.48638594895827 11.659780896592 -2.77308985687248 orientation -0.650210454778073 -0.407198851527225 0.313571531930615 0.559542986887413 velocity -0.0135818138976367 0.0988595564061197 -5.70219838721542 angularVelocity 0.633059510315404 0.00759302441925572 0.797354802687635 force 0 0 -1 torque 0 0 0 radius 0.5 invMass 1
BaseParticle id 1183 indSpecies 0 position 9.21632192450634 10.821235504398 18.7029649334663 orientation 1 0 0 0 velocity 0 0 -0.635 angularVelocity 0 0 0 force 0 0 -1 torque 0 0 0 radius 0.5 invMass 1
BaseParticle id 23 indSpecies 0 position 7.22009944710824 10.2217480241177 9.92162353039251 orientation -0.131272912492875 0.419591389906304 0.684602005226537 -0.581403975220276 velocity 0.3206416317026 -0.232482845132966 -1.21248962116409 angularVelocity -0.366549326368189 0.469049584050166 0.320413549010867 force 0 0 -1 torque 0 0 0 radius 0.5 invMass 1
BaseParticle id 24 indSpecies 0 position 12.6944562923199 5.0615883971737 14.094605480307 orientation -0.860154613967304 -0.393439518684183 0.305677657022074 0.109089665898339 velocity 0.0498123472458915 0.0659276761581977 -0.0994923291207652 angularVelocity -0.0178471755351626 -0.0863608516299001 -0.0356450755415083 force -0.103422549319084 -0.28132365481826 -0.663901124400017 torque -0.156064205039425 -0.141060135594093 0.0363601648071049 radius 0.5 invMass 1
BaseParticle id 25 indSpecies 0 position 10.5248474604811 8.48897695390172 1.93708744638118 orientation 0.0718070906724386 -0.958060438041648 -0.277219932100727 -0.0106324049337374 velocity 0.323547247139501 0.0291699768686202 -4.79443850366999 angularVelocity -0.605619670446245 -0.125490751965681 -0.272446635677805 force 0 0 -1 torque 0 0 0 radius 0.5 invMass 1
BaseParticle id 26 indSpecies 0 position 7.04758806090026 12.3832748455901 11.4337124960792 orientation 0.178397215790742 0.16923568613014 0.924597653077021 -0.290951707096964 velocity 0.202161767307629 -0.154104588781027 -0.223294745065603 angularVelocity 0.307529238358949 0.180186957339799 0.110732652479728 force -0.710491772092748 0.0999486468087696 -1.69703225500541 torque 0.025280185988784 -0.0776584863639851 0.170663990474949 radius 0.5 invMass 1
BaseParticle id 1182 indSpecies 0 position 9.08146351339453 7.76191927793563 18.6501351263737 orientation 1 0 0 0 velocity 0 0 -0.645 angularVelocity 0 0 0 force 0 0 -1 torque 0 0 0 radius 0.5 invMass 1
BaseParticle id 1181 indSpecies 0 position 15.7330431322261 12.9282676730468 18.7033027953056 orientation 1 0 0 0 velocity 0 0 -0.655 angularVelocity 0 0 0 force 0 0 -1 torque 0 0 0 radius 0.5 invMass 1
BaseParticle id 29 indSpecies 0 position 10.0833909460954 6.05792857194077 11.6331699785759 orientation 0.924843397616087 0.338371055786427 0.0751772077194087 -0.156582585019614 velocity -0.0670750095016511 -0.0258235563896531 -0.171795334029593 angularVelocity -0.298796110202594 0.0911137877270724 0.165630798057563 force 1.84151692661097 -0.074203423242281 0.590566697703434 torque -0.0947935194172078 -0.0772313906291115 0.00676600637028268 radius 0.5 invMass 1
BaseParticle id 30 indSpecies 0 position 7.48567350031068 12.7802152185376 -0.996417969430362 orientation -0.638227650056831 0.65943624557688 0.246325082644216 -0.311662090063461 velocity -0.412072824096727 0.29508545845026 -5.32426993494334 angularVelocity 0.278872690180557 0.773901031855521 -0.169299289432187 force 0 0 -1 torque 0 0 0 radius 0.5 invMass 1
BaseParticle id 31 indSpecies 0 position 6.98375964997444 8.98224665462783 10.564391880469 orientation -0.877978922960292 0.00924225549078079 -0.126218051571278 -0.461667190742941 velocity 0.474024941975202 0.167197877110791 -0.633572189336783 angularVelocity -0.479455618196721 1.12996298502447 -0.00262198557382601 force -2.04916351503268 -0.997234963888909 0.120120408125342 torque 0.277653679548743 -0.0555912137870893 0.362789619359667 radius 0.5 invMass 1
BaseParticle id 32 indSpecies 0 position 12.4417667244623 6.54893148074286 3.11349856857317 orientation -0.274164198114592 -0.8627196347946 -0.188153944853922 0.380981518249852 velocity 0.162999425518762 -1.01175043825283 -4.30206502679071 angularVelocity -0.309771090400771 -0.221136317978378 -0.772709878845854 force 0 0 -1 torque 0 0 0 radius 0.5 invMass 1
BaseParticle id 1042 indSpecies 0 position 12.9299609606398 17.5839113488199 17.7827680483524 orientation 0.992945693852996 0.117261623560218 0.0152660255069961 0.00868960091332063 velocity 0.0151613788001553 -0.676945822289165 -0.0824002975255069 angularVelocity 1.0207917175103 0.0801362732305504 0.0657406741703862 force 0 0 -1 torque 0 0 0 radius 0.5 invMass 1
BaseParticle id 34 indSpecies 0 position 8.45173425522488 11.4089440237046 -1.34211715429893 orientation 0.859863709877299 0.257384865404484 -0.33924070340697 0.28160819705525 velocity -0.381148123214889 -0.117189407690953 -5.71653247425967 angularVelocity -0.0827866474057181 -0.386506576357316 0.142397676002654 force 0 0 -1 torque 0 0 0 radius 0.5 invMass 1
BaseParticle id 35 indSpecies 0 position 11.6727790727112 8.12333055752738 0.520123964365125 orientation -0.841410030158865 -0.100872545655446 -0.472024172921981 0.242996030540354 velocity -0.147023338491452 -0.1161191403034 -4.8898936299886 angularVelocity -0.651077154437729 -0.850968027632955 0.456834615713912 force 0 0 -1 torque 0 0 0 radius 0.5 invMass 1
BaseParticle id 1180 indSpecies 0 position 5.65002970530956 6.90599412068434 17.7057340177031 orientation 0.998961223065806 0.00517388280578749 -0.0452554844085722 0.00128330765108175 velocity 0.0372519811698709 0.0013791923095004 -0.87744424801351 angularVelocity 0.0352827218256245 -0.248909827023517 0.00385410092490662 force 0 0 -1 torque 0 0 0 radius 0.5 invMass 1
BaseParticle id 37 indSpecies 0 position 9.82606474827936 9.66103764392192 -2.18597085146737 orientation 0.324288149648231 -0.66008150824549 -0.631055423134684 -0.246776521173288 velocity -0.0381253664719709 0.143167115514854 -5.86127324131953 angularVelocity -0.437781358714449 -0.40591381913579 0.00706490974050703 force 0 0 -1 torque 0 0 0 radius 0.5 invMass 1
BaseParticle id 38 indSpecies 0 position 13.3763297797112 8.85678808450067 -0.987962719361335 orientation -0.0617099146705294 -0.825518776436385 -0.533978237616629 -0.171982202376201 velocity 0.491141792693238 -0.227169859977447 -5.3996082638596 angularVelocity -0.665995738704905 -0.241381698404879 -0.536179633041152 force 0 0 -1 torque 0 0 0 radius 0.5 invMass 1
BaseParticle id 39 indSpecies 0 position 11.1786909858763 7.54437863625858 7.52812291278657 orientation -0.372460534884829 -0.345941899795564 -0.741837374418098 0.437349587670558 velocity -0.530792703086938 -0.264358790778168 -2.56681158000755 angularVelocity -0.863288366732851 0.339460641110701 0.30022983196129 force 0 0 -1 torque 0 0 0 radius 0.5 invMass 1
BaseParticle id 40 indSpecies 0 position 6.68413535815383 11.5010206883413 11.2665812306522 orientation -0.802281396288871 -0.0425351681180098 0.339290070395388 -0.489303146089462 velocity 0.245866469292647 -0.182958586524062 -0.641124796112602 angularVelocity 0.199490140380106 -0.068243858677926 0.140170182265759 force -0.792876660839166 -0.559671528141596 -0.0419140007291237 torque -0.0472570376214662 -0.0504446298809946 -0.100458154748166 radius 0.5 invMass 1
BaseParticle id 41 indSpecies 0 position 12.8251912059119 7.38483528452361 11.5488497467751 orientation 0.802863379714145 -0.414913474790027 -0.427805071696395 -0.0154926622143315 velocity -0.0956298313351391 0.184993602258219 -0.475379876110754 angularVelocity -0.250831889505246 -0.0368495310159673 0.16182148125439 force 0.0231500209998599 -0.11422407243144 -1.09243452529534 torque 0.0801050642607313 -0.0571438704634273 -0.0995269327147259 radius 0.5 invMass 1
BaseParticle id 42 indSpecies 0 position 8.5722735574408 8.0622339996024 -1.3282228905189 orientation 0.831727114005575 -0.225351386924467 0.182089534495004 -0.47359282265103 velocity -0.230476316724679 -0.190479045843269 -5.50162821829004 angularVelocity 0.0170142175587757 -0.23964201506381 0.0604871956567191 force 0 0 -1 torque 0 0 0 radius 0.5 invMass 1
BaseParticle id 43 indSpecies 0 position 9.19082717799082 8.67099553837323 -2.96414802986586 orientation -0.0270278067843601 -0.425191979387299 0.842224874603252 0.330361224910966 velocity 0.115146194357651 -0.242648797235238 -6.03244349451526 angularVelocity -0.277720272407623 -0.0649841466492116 -0.456985218389284 force 0 0 -1 torque 0 0 0 radius 0.5 invMass 1
BaseParticle id 44 indSpecies 0 position 11.857848648956 12.6572159086979 10.6982301525935 orientation -0.0724081777855488 0.283089409121146 -0.8522982357864 -0.433826185826314 velocity -0.0754888001145822 -0.337514417587111 -0.585275295030672 angularVelocity 0.444757619427888 -0.662233033179002 0.389974550943362 force 1.48970582154352 -1.94594712996655 5.14598912886152 torque 0.0651645701082431 -0.595759780917809 -0.272680989282936 radius 0.5 invMass 1
BaseParticle id 45 indSpecies 0 position 6.08239947000238 9.3667021743674 11.6938625030334 orientation -0.660887736132615 -0.279592312796246 0.456663804080828 0.525845708261635 velocity 0.0444783818524998 -0.157307600301508 -0.237460450814242 angularVelocity -0.160688611764619 0.316031595452358 -0.171418933678925 force -0.0725305169815389 0.235309153685884 -0.131473598313836 torque -0.0322101921622405 0.207943517021529 0.0496013354216278 radius 0.5 invMass 1
BaseParticle id 46 indSpecies 0 position 10.9289704239315 8.47875005435111 6.72449800142466 orientation 0.419886180174952 0.175032613104163 -0.64535622987451 -0.613656676497677 velocity -0.21332610931223 -0.157826293886784 -3.16947872990799 angularVelocity 0.346897997085063 -0.768412487370455 -0.66340784755192 force 0 0 -1 torque 0 0 0 radius 0.5 invMass 1
BaseParticle id 47 indSpecies 0 position 7.50644363634466 10.0657665684734 -0.91983740392221 orientation -0.634632934100737 0.255396727000329 0.667306914512164 0.294474162935332 velocity -0.457796671733145 0.0175234937749299 -5.64694016964045 angularVelocity 0.419529446074363 0.277119178405786 0.00946782151343186 force 0 0 -1 torque 0 0 0 radius 0.5 invMass 1
BaseParticle id 48 indSpecies 0 position 9.77347982806081 8.27808613439048 7.35535583504081 orientation 0.172240242653318 -0.750041158459722 0.634287913180708 -0.0738268421374414 velocity -0.208825882856576 0.602502292233626 -3.06368967303411 angularVelocity 0.0157997052672852 -0.757658352771313 -1.02553462027793 force 0 0 -1 torque 0 0 0 radius 0.5 invMass 1
BaseParticle id 1179 indSpecies 0 position 10.1968668468748 2.86392337414993 18.6788069946338 orientation 1 0 0 0 velocity 0 0 -0.665 angularVelocity 0 0 0 force 0 0 -1 torque 0 0 0 radius 0.5 invMass 1
BaseParticle id 50 indSpecies 0 position 10.4257115629968 10.9819420316587 1.03034934606928 orientation 0.737949751519424 0.49760056085773 -0.454435105275056 0.0362295619645281 velocity -0.177575675282893 0.00543671354131125 -5.16937506407131 angularVelocity 0.133510181870953 -0.180873860000202 -0.234350412004815 force 0 0 -1 torque 0 0 0 radius 0.5 invMass 1
BaseParticle id 1041 indSpecies 0 position 8.69978362461342 9.91793841982898 17.4845175054511 orientation 0.999433336314151 -0.0223081941899531 0.0252061646417657 -1.08360007082469e-17 velocity 0.0831760799496457 0.0736132676210981 -1.57152801842898 angularVelocity -0.225166368641008 0.254416852902861 -2.76491203331046e-16 force 0 0 -1 torque 0 0 0 radius 0.5 invMass 1
BaseParticle id 1178 indSpecies 0 position 4.31165364562384 16.4429953004543 18.4988576743157 orientation 1 0 0 0 velocity 0 0 -0.675 angularVelocity 0 0 0 force 0 0 -1 torque 0 0 0 radius 0.5 invMass 1
BaseParticle id 53 indSpecies 0 position 12.7133552598991 8.17542349654375 10.7642514769408 orientation -0.111131908016594 -0.691241459705172 -0.711015499498139 -0.0655126161793795 velocity -0.355804282657324 0.270493496139305 -0.664124681322885 angularVelocity -0.725625294881367 -0.576386530458041 0.00355413481683804 force -1.28694989455662 1.53220215735275 2.33722171373772 torque -0.118424981413676 -0.338959888261102 0.206618554546133 radius 0.5 invMass 1
BaseParticle id 1177 indSpecies 0 position 14.0173853570344 7.21814928905288 17.0423939112143 orientation 0.986759931458981 -0.0794203058576696 -0.141411642676766 -2.19264078977919e-18 velocity 0.207300382169627 -0.116425065466187 -1.25343980127754 angularVelocity -0.280500903993525 -0.499445238565668 4.97610304569002e-17 force 0 0 -1 torque 0 0 0 radius 0.5 invMass 1
BaseParticle id 55 indSpecies 0 position 7.73862106119527 8.94960056029232 -0.977028504807256 orientation -0.559270112281245 0.482286899737632 -0.338826330877864 -0.582934820845548 velocity -0.455279477534805 -0.0690688165097163 -5.52748935483944 angularVelocity -0.204817728865614 0.0777867982610128 0.216480681259064 force 0 0 -1 torque 0 0 0 radius 0.5 invMass 1
BaseParticle id 56 indSpecies 0 position 8.75787990197752 5.11917104832233 13.2579537103001 orientation -0.61914727195009 -0.689252624707509 -0.365862099756522 0.0879340601378116 velocity 0.037483616293014 0.108468143657847 -0.163924068880854 angularVelocity -0.13583042498364 0.0687402062520256 0.0778207346475945 force 1.32908399535715 0.862401688895185 -0.0204125442582663 torque 0.0126095299422561 -0.0422192428768243 0.0310143990616833 radius 0.5 invMass 1
BaseParticle id 57 indSpecies 0 position 12.1911193838635 9.79044421493964 8.84536546435424 orientation 0.582721896436052 0.22179889280074 -0.369436687765187 -0.689026107124705 velocity 0.153696254318826 -0.0487262490898498 -2.23831854836224 angularVelocity 0.746624066739678 -0.805717237781249 -0.0711915233249318 force 0 0 -1 torque 0 0 0 radius 0.5 invMass 1
BaseParticle id 58 indSpecies 0 position 10.1508338250498 13.5910052732238 11.1656845795608 orientation -0.0184637532468333 0.641785703194278 -0.0400606176893921 -0.765614359780308 velocity -0.0437415483390166 -0.127559660127419 -0.0650273727091778 angularVelocity 0.605708474208644 0.0945830813613796 0.0898957284219103 force -2.50295173358302 -0.994597328019951 0.0414290996435245 torque -0.260784508638656 0.265395013015794 -0.0795707725739614 radius 0.5 invMass 1
BaseParticle id 59 indSpecies 0 position 11.9852264767646 7.51465814276585 10.585292609399 orientation -0.384196726495818 -0.866232323507478 -0.255881530508845 0.191204287099387 velocity -0.141412954907368 0.0371274449801755 -0.545254900951757 angularVelocity -0.412617750509383 -0.491061717136347 -0.096439969390185 force 3.74700647583199 -0.181874274075946 4.83713324106074 torque 1.048818557965 1.50348892102986 -0.339528031133487 radius 0.5 invMass 1
BaseParticle id 60 indSpecies 0 position 9.95087383747737 11.8076199613863 -0.549640846486896 orientation -0.321454057677017 0.447403176324211 0.0170689592377327 0.834389799343526 velocity -0.00917522342681774 -0.360430946584954 -5.20189720713942 angularVelocity 0.331487064131947 -0.634098255357077 0.257302229533362 force 0 0 -1 torque 0 0 0 radius 0.5 invMass 1
BaseParticle id 61 indSpecies 0 position 8.27985416652282 11.4331709785931 -2.69011253417687 orientation 0.721925032643619 0.139927659683588 0.354149530871217 0.577773837311522 velocity -0.0676864873746649 0.299901739871606 -5.98415732516216 angularVelocity -0.335345720248777 0.0262197350220624 0.790245888478261 force 0 0 -1 torque 0 0 0 radius 0.5 invMass 1
BaseParticle id 1040 indSpecies 0 position 11.9853348311605 16.7289494187674 17.7682922119454 orientation 0.992476866891048 0.0971741013263534 -0.0209602273769026 0.0714669964798724 velocity -0.20058742738496 -0.294407662084646 -0.504105838129882 angularVelocity 0.650070113465838 -0.271913648664715 -0.0152323396985421 force -0.0191458955507202 -2.36605110784935 2.10234512078055 torque -0.110830187940568 -0.188391432074865 -0.115735481541711 radius 0.5 invMass 1
BaseParticle id 63 indSpecies 0 position 10.1147869808209 7.92327476058641 6.3897113172862 orientation 0.154637672420255 -0.775918735284704 -0.282318101823291 -0.542525387318902 velocity -0.538613359040498 0.149667288247695 -3.04408285962303 angularVelocity -0.025588938969057 -0.793102597511788 0.00667373991540121 force 0 0 -1 torque 0 0 0 radius 0.5 invMass 1
BaseParticle id 64 indSpecies 0 position 11.5022568402367 5.47615481767443 12.8648771124329 orientation 0.566462505502874 -0.775925602773863 -0.2100965482798 -0.181436295212223 velocity 0.038282232682577 0.156278495095069 -0.150602135967921 angularVelocity -0.0611962832539261 0.0891284520874159 0.111693512385583 force 1.37818393622707 -0.479701330797239 -0.345888413246936 torque -0.00853466778193801 -0.0202701400866663 -0.023832910011071 radius 0.5 invMass 1
BaseParticle id 1176 indSpecies 0 position 8.91370270264438 8.96805028478303 18.5572695961519 orientation 1 0 0 0 velocity 0 0 -0.675 angularVelocity 0 0 0 force 0 0 -1 torque 0 0 0 radius 0.5 invMass 1
BaseParticle id 66 indSpecies 0 position 9.71548574774659 7.92389960714454 0.556971748077438 orientation 0.140868980456717 -0.899550837304913 0.376675674181219 -0.170527587003509 velocity 0.0729989800009345 0.0602203368165254 -4.86419603739057 angularVelocity -0.455661035929097 0.28259969828299 0.227142679709828 force 0 0 -1 torque 0 0 0 radius 0.5 invMass 1
BaseParticle id 1175 indSpecies 0 position 5.74667634418946 6.18088008913565 18.5923597549228 orientation 1 0 0 0 velocity 0 0 -0.675 angularVelocity 0 0 0 force 0 0 -1 torque 0 0 0 radius 0.5 invMass 1
BaseParticle id 68 indSpecies 0 position 14.2174829446901 11.6480737840932 12.5289682756531 orientation 0.893896558709255 -0.324316303237942 -0.0367281122356147 0.307276623831744 velocity -0.0194507315747386 -0.0436440298698231 -0.211399100769664 angularVelocity 0.000861411575493841 -0.0797279271385898 -0.0493346035831086 force 1.41915692234523 1.15542904631058 0.118645346443138 torque -0.0410859927051627 -0.257468057595218 0.264687589892645 radius 0.5 invMass 1
BaseParticle id 69 indSpecies 0 position 10.6178161285794 7.78674546421996 -3.14902021030282 orientation -0.138437490193205 -0.68279233934035 -0.708196350941473 -0.114401097723411 velocity 0.115463306903731 -0.166748889651675 -5.83663150726635 angularVelocity 0.0736553132003051 -0.0365127894393791 0.331628375724491 force 0 0 -1 torque 0 0 0 radius 0.5 invMass 1
BaseParticle id 70 indSpecies 0 position 7.62407163152663 12.1631977680323 10.6362928647393 orientation -0.214135308527716 0.828489923464255 0.511430832339145 -0.0786703253636464 velocity 0.121953149195259 -0.12631356977829 -0.223670313139778 angularVelocity 0.567724688665199 -0.00506275123427311 0.558765379508196 force 1.07955912524144 0.449402317362741 0.0883739937219641 torque -0.0521684785120389 0.279670928249388 0.0952954566986259 radius 0.5 invMass 1
BaseParticle id 71 indSpecies 0 position 12.6359935344876 11.1693956094102 4.77398759386105 orientation -0.711910408853692 -0.561243144808044 0.273742471824273 0.321332789007415 velocity 0.526795787157156 -0.331764920056502 -3.85392203316303 angularVelocity 2.17781177897327 -0.765358311477242 -0.2100860221161 force 0 0 -1 torque 0 0 0 radius 0.5 invMass 1
BaseParticle id 1174 indSpecies 0 position 14.8002817646539 4.41459416807163 18.4379710301504 orientation 1 0 0 0 velocity -0.00884720933667097 0.0115848197595586 -0.668935135171234 angularVelocity -0.00939886591005373 -0.021482366840356 0.0207292430536038 force -1.76944186733419 2.31696395191172 0.212972965753205 torque -0.187977318201074 -0.429647336807119 0.414584861072077 radius 0.5 invMass 1
BaseParticle id 73 indSpecies 0 position 12.7140846748069 12.3788973808264 11.2044799779056 orientation -0.209570736565415 0.542484471346576 -0.797338601878778 0.161374901013913 velocity -0.0866892932753618 -0.0614289251745785 -0.485718540884114 angularVelocity -0.244306351385855 -0.321153550281373 0.226150865422609 force 1.82778723259496 1.74809523003906 -0.319619750388643 torque -0.236920127417386 -0.515486750515511 0.208146115857062 radius 0.5 invMass 1
BaseParticle id 1039 indSpecies 0 position 7.09858072604067 13.1304357187373 17.694590713145 orientation 0.984783446386381 0.101315186485311 -0.141060283933703 0.00622840327457382 velocity -0.138143941429264 -0.0997123043547649 -1.30593157827488 angularVelocity 0.270913261559985 -0.377485173242276 0.0164608223738059 force 0 0 -1 torque 0 0 0 radius 0.5 invMass 1