MercuryDPM 0.14 name HopperSelfTest revision 5628 repository https://svn.mercurydpm.org/SourceCode/Branches/Timo
dataFile    fileType ONE_FILE saveCount 51 counter 26 lastSavedTimeStep 1251
fStatFile   fileType ONE_FILE saveCount 51 counter 26 lastSavedTimeStep 1251
eneFile     fileType ONE_FILE saveCount 51 counter 26 lastSavedTimeStep 1251
restartFile fileType ONE_FILE saveCount 51 counter 26 lastSavedTimeStep 1251
statFile    fileType ONE_FILE saveCount 51 counter 0
interactionFile fileType NO_FILE saveCount 0 counter 0
xMin 0 xMax 0.0589594510866257 yMin 0 yMax 0.0016 zMin 0 zMax 0.0280887601170343
timeStep 8e-06 time 0.010008 ntimeSteps 1251 timeMax 0.01
systemDimensions 3 particleDimensions 3 gravity 1.70175214113592 0 -9.65111597951964 writeVTK 0 NO_FILE NO_FILE 0 0 0 0 random  0 1103515245 12345 1073741824 607 273 784607267
Species 1
LinearViscoelasticSlidingFrictionSpecies id 0 density 2400 stiffness 14.4701448167677 dissipation 6.01461669101624e-05 slidingStiffness 0 slidingDissipation 0 slidingFrictionCoefficient 0.5 slidingFrictionCoefficientStatic 0.5
Walls 5
InfiniteWall id 0 indSpecies 0 position 0 0 0 orientation 0.707106781186548 0 0 -0.707106781186548 velocity 0 0 0 angularVelocity 0 0 0 force 0 -1.9421862808924e-05 0 torque 4.81123618671036e-07 0 -6.60909224737444e-07
InfiniteWall id 1 indSpecies 0 position 0 0.0016 0 orientation 0.707106781186548 0 0 0.707106781186548 velocity 0 0 0 angularVelocity 0 0 0 force 0 0 0 torque 0 0 0
InfiniteWall id 2 indSpecies 0 position 0 0 -0.000727272727272727 orientation 0.707106781186548 0 0.707106781186548 0 velocity 0 0 0 angularVelocity 0 0 0 force 0 0 0 torque 0 0 0
IntersectionOfWalls id 3 indSpecies 0 position 0 0 0 orientation 1 0 0 0 velocity 0 0 0 angularVelocity 0 0 0 force 0 0 0 torque 0 0 0 numIntersectionOfWalls 3 position 0 0 0.0211428330103571 orientation 0.17364817766693 0 0.984807753012208 0 position 0.0295442325903662 0 -0.0600292789067895 orientation 0.996194698091745 0 -0.0871557427476582 0 position 0.0189594510866257 0 0 orientation 0.933944001109067 0 -0.357419365441196 0
IntersectionOfWalls id 4 indSpecies 0 position 0 0 0 orientation 1 0 0 0 velocity 0 0 0 angularVelocity 0 0 0 force 0 0 0 torque 0 0 0 numIntersectionOfWalls 3 position 0.0393923101204883 0 0.0280887601170343 orientation 1 0 -0 0 position 0.0393923101204883 0 -0.0582927971301202 orientation 0.0871557427476577 0 0.996194698091746 0 position 0.0273772354288139 0 0.00984807753012208 orientation 0.287132810912366 0 -0.957890781298976 0
Boundaries 1
HopperInsertionBoundary id 0 maxFailed 1 massInserted 0.000143905504028893 volumeInserted 5.99606266787055e-08 numberOfParticlesInserted 315 isActivated 1 distribution 0 initialVolume 0 samplingInterval 0 variableCumulativeVolumeFlowRate 0 particleToCopy BaseParticle id 0 indSpecies 0 position 0 0 0 orientation 1 0 0 0 velocity 0 0 0 angularVelocity 0 0 0 force 0 0 0 torque 0 0 0 radius 1 invMass 1 yMin 0 yMax 0.0016 radMin 0.00032 radMax 0.0004 chuteAngle 0.174532925199433 fixedParticleRadius 0.00036 isHopperCentred_ 0 hopperDim 1 hopperAngle 1.0471975511966 hopperLength 0.04 hopperExitLength 0.01 hopperHeight 0.0241139 lift 0 fillPercent 50
Particles 425
BaseParticle id 0 indSpecies 0 position 0.0193194510866257 0.00036 0 orientation 1 0 0 0 velocity 0 0 0 angularVelocity 0 0 0 force 0 0 0 torque 0 0 0 radius 0.00036 invMass 0
BaseParticle id 1 indSpecies 0 position 0.0193194510866257 0.00116 0 orientation 1 0 0 0 velocity 0 0 0 angularVelocity 0 0 0 force 0 0 0 torque 0 0 0 radius 0.00036 invMass 0
BaseParticle id 2 indSpecies 0 position 0.0200467238138984 0.00036 0 orientation 1 0 0 0 velocity 0 0 0 angularVelocity 0 0 0 force 0 0 0 torque 0 0 0 radius 0.00036 invMass 0
BaseParticle id 3 indSpecies 0 position 0.0200467238138984 0.00116 0 orientation 1 0 0 0 velocity 0 0 0 angularVelocity 0 0 0 force 0 0 0 torque 0 0 0 radius 0.00036 invMass 0
BaseParticle id 4 indSpecies 0 position 0.0207739965411712 0.00036 0 orientation 1 0 0 0 velocity 0 0 0 angularVelocity 0 0 0 force 0 0 0 torque 0 0 0 radius 0.00036 invMass 0
BaseParticle id 5 indSpecies 0 position 0.0207739965411712 0.00116 0 orientation 1 0 0 0 velocity 0 0 0 angularVelocity 0 0 0 force 0 0 0 torque 0 0 0 radius 0.00036 invMass 0
BaseParticle id 6 indSpecies 0 position 0.0215012692684439 0.00036 0 orientation 1 0 0 0 velocity 0 0 0 angularVelocity 0 0 0 force 0 0 0 torque 0 0 0 radius 0.00036 invMass 0
BaseParticle id 7 indSpecies 0 position 0.0215012692684439 0.00116 0 orientation 1 0 0 0 velocity 0 0 0 angularVelocity 0 0 0 force 0 0 0 torque 0 0 0 radius 0.00036 invMass 0
BaseParticle id 8 indSpecies 0 position 0.0222285419957166 0.00036 0 orientation 1 0 0 0 velocity 0 0 0 angularVelocity 0 0 0 force 0 0 0 torque 0 0 0 radius 0.00036 invMass 0
BaseParticle id 9 indSpecies 0 position 0.0222285419957166 0.00116 0 orientation 1 0 0 0 velocity 0 0 0 angularVelocity 0 0 0 force 0 0 0 torque 0 0 0 radius 0.00036 invMass 0
BaseParticle id 10 indSpecies 0 position 0.0229558147229893 0.00036 0 orientation 1 0 0 0 velocity 0 0 0 angularVelocity 0 0 0 force 0 0 0 torque 0 0 0 radius 0.00036 invMass 0
BaseParticle id 11 indSpecies 0 position 0.0229558147229893 0.00116 0 orientation 1 0 0 0 velocity 0 0 0 angularVelocity 0 0 0 force 0 0 0 torque 0 0 0 radius 0.00036 invMass 0
BaseParticle id 12 indSpecies 0 position 0.0236830874502621 0.00036 0 orientation 1 0 0 0 velocity 0 0 0 angularVelocity 0 0 0 force 0 0 0 torque 0 0 0 radius 0.00036 invMass 0
BaseParticle id 13 indSpecies 0 position 0.0236830874502621 0.00116 0 orientation 1 0 0 0 velocity 0 0 0 angularVelocity 0 0 0 force 0 0 0 torque 0 0 0 radius 0.00036 invMass 0
BaseParticle id 14 indSpecies 0 position 0.0244103601775348 0.00036 0 orientation 1 0 0 0 velocity 0 0 0 angularVelocity 0 0 0 force 0 0 0 torque 0 0 0 radius 0.00036 invMass 0
BaseParticle id 15 indSpecies 0 position 0.0244103601775348 0.00116 0 orientation 1 0 0 0 velocity 0 0 0 angularVelocity 0 0 0 force 0 0 0 torque 0 0 0 radius 0.00036 invMass 0
BaseParticle id 16 indSpecies 0 position 0.0251376329048075 0.00036 0 orientation 1 0 0 0 velocity 0 0 0 angularVelocity 0 0 0 force 0 0 0 torque 0 0 0 radius 0.00036 invMass 0
BaseParticle id 17 indSpecies 0 position 0.0251376329048075 0.00116 0 orientation 1 0 0 0 velocity 0 0 0 angularVelocity 0 0 0 force 0 0 0 torque 0 0 0 radius 0.00036 invMass 0
BaseParticle id 18 indSpecies 0 position 0.0258649056320803 0.00036 0 orientation 1 0 0 0 velocity 0 0 0 angularVelocity 0 0 0 force 0 0 0 torque 0 0 0 radius 0.00036 invMass 0
BaseParticle id 19 indSpecies 0 position 0.0258649056320803 0.00116 0 orientation 1 0 0 0 velocity 0 0 0 angularVelocity 0 0 0 force 0 0 0 torque 0 0 0 radius 0.00036 invMass 0
BaseParticle id 20 indSpecies 0 position 0.026592178359353 0.00036 0 orientation 1 0 0 0 velocity 0 0 0 angularVelocity 0 0 0 force 0 0 0 torque 0 0 0 radius 0.00036 invMass 0
BaseParticle id 21 indSpecies 0 position 0.026592178359353 0.00116 0 orientation 1 0 0 0 velocity 0 0 0 angularVelocity 0 0 0 force 0 0 0 torque 0 0 0 radius 0.00036 invMass 0
BaseParticle id 22 indSpecies 0 position 0.0273194510866257 0.00036 0 orientation 1 0 0 0 velocity 0 0 0 angularVelocity 0 0 0 force 0 0 0 torque 0 0 0 radius 0.00036 invMass 0
BaseParticle id 23 indSpecies 0 position 0.0273194510866257 0.00116 0 orientation 1 0 0 0 velocity 0 0 0 angularVelocity 0 0 0 force 0 0 0 torque 0 0 0 radius 0.00036 invMass 0
BaseParticle id 24 indSpecies 0 position 0.0280467238138984 0.00036 0 orientation 1 0 0 0 velocity 0 0 0 angularVelocity 0 0 0 force 0 0 0 torque 0 0 0 radius 0.00036 invMass 0
BaseParticle id 25 indSpecies 0 position 0.0280467238138984 0.00116 0 orientation 1 0 0 0 velocity 0 0 0 angularVelocity 0 0 0 force 0 0 0 torque 0 0 0 radius 0.00036 invMass 0
BaseParticle id 26 indSpecies 0 position 0.0287739965411712 0.00036 0 orientation 1 0 0 0 velocity 0 0 0 angularVelocity 0 0 0 force 0 0 0 torque 0 0 0 radius 0.00036 invMass 0
BaseParticle id 27 indSpecies 0 position 0.0287739965411712 0.00116 0 orientation 1 0 0 0 velocity 0 0 0 angularVelocity 0 0 0 force 0 0 0 torque 0 0 0 radius 0.00036 invMass 0
BaseParticle id 28 indSpecies 0 position 0.0295012692684439 0.00036 0 orientation 1 0 0 0 velocity 0 0 0 angularVelocity 0 0 0 force 0 0 0 torque 0 0 0 radius 0.00036 invMass 0
BaseParticle id 29 indSpecies 0 position 0.0295012692684439 0.00116 0 orientation 1 0 0 0 velocity 0 0 0 angularVelocity 0 0 0 force 0 0 0 torque 0 0 0 radius 0.00036 invMass 0
BaseParticle id 30 indSpecies 0 position 0.0302285419957166 0.00036 0 orientation 1 0 0 0 velocity 0 0 0 angularVelocity 0 0 0 force 0 0 0 torque 0 0 0 radius 0.00036 invMass 0
BaseParticle id 31 indSpecies 0 position 0.0302285419957166 0.00116 0 orientation 1 0 0 0 velocity 0 0 0 angularVelocity 0 0 0 force 0 0 0 torque 0 0 0 radius 0.00036 invMass 0
BaseParticle id 32 indSpecies 0 position 0.0309558147229893 0.00036 0 orientation 1 0 0 0 velocity 0 0 0 angularVelocity 0 0 0 force 0 0 0 torque 0 0 0 radius 0.00036 invMass 0
BaseParticle id 33 indSpecies 0 position 0.0309558147229893 0.00116 0 orientation 1 0 0 0 velocity 0 0 0 angularVelocity 0 0 0 force 0 0 0 torque 0 0 0 radius 0.00036 invMass 0
BaseParticle id 34 indSpecies 0 position 0.0316830874502621 0.00036 0 orientation 1 0 0 0 velocity 0 0 0 angularVelocity 0 0 0 force 0 0 0 torque 0 0 0 radius 0.00036 invMass 0
BaseParticle id 35 indSpecies 0 position 0.0316830874502621 0.00116 0 orientation 1 0 0 0 velocity 0 0 0 angularVelocity 0 0 0 force 0 0 0 torque 0 0 0 radius 0.00036 invMass 0
BaseParticle id 36 indSpecies 0 position 0.0324103601775348 0.00036 0 orientation 1 0 0 0 velocity 0 0 0 angularVelocity 0 0 0 force 0 0 0 torque 0 0 0 radius 0.00036 invMass 0
BaseParticle id 37 indSpecies 0 position 0.0324103601775348 0.00116 0 orientation 1 0 0 0 velocity 0 0 0 angularVelocity 0 0 0 force 0 0 0 torque 0 0 0 radius 0.00036 invMass 0
BaseParticle id 38 indSpecies 0 position 0.0331376329048075 0.00036 0 orientation 1 0 0 0 velocity 0 0 0 angularVelocity 0 0 0 force 0 0 0 torque 0 0 0 radius 0.00036 invMass 0
BaseParticle id 39 indSpecies 0 position 0.0331376329048075 0.00116 0 orientation 1 0 0 0 velocity 0 0 0 angularVelocity 0 0 0 force 0 0 0 torque 0 0 0 radius 0.00036 invMass 0
BaseParticle id 40 indSpecies 0 position 0.0338649056320803 0.00036 0 orientation 1 0 0 0 velocity 0 0 0 angularVelocity 0 0 0 force 0 0 0 torque 0 0 0 radius 0.00036 invMass 0
BaseParticle id 41 indSpecies 0 position 0.0338649056320803 0.00116 0 orientation 1 0 0 0 velocity 0 0 0 angularVelocity 0 0 0 force 0 0 0 torque 0 0 0 radius 0.00036 invMass 0
BaseParticle id 42 indSpecies 0 position 0.034592178359353 0.00036 0 orientation 1 0 0 0 velocity 0 0 0 angularVelocity 0 0 0 force 0 0 0 torque 0 0 0 radius 0.00036 invMass 0
BaseParticle id 43 indSpecies 0 position 0.034592178359353 0.00116 0 orientation 1 0 0 0 velocity 0 0 0 angularVelocity 0 0 0 force 0 0 0 torque 0 0 0 radius 0.00036 invMass 0
BaseParticle id 44 indSpecies 0 position 0.0353194510866257 0.00036 0 orientation 1 0 0 0 velocity 0 0 0 angularVelocity 0 0 0 force 0 0 0 torque 0 0 0 radius 0.00036 invMass 0
BaseParticle id 45 indSpecies 0 position 0.0353194510866257 0.00116 0 orientation 1 0 0 0 velocity 0 0 0 angularVelocity 0 0 0 force 0 0 0 torque 0 0 0 radius 0.00036 invMass 0
BaseParticle id 46 indSpecies 0 position 0.0360467238138984 0.00036 0 orientation 1 0 0 0 velocity 0 0 0 angularVelocity 0 0 0 force 0 0 0 torque 0 0 0 radius 0.00036 invMass 0
BaseParticle id 47 indSpecies 0 position 0.0360467238138984 0.00116 0 orientation 1 0 0 0 velocity 0 0 0 angularVelocity 0 0 0 force 0 0 0 torque 0 0 0 radius 0.00036 invMass 0
BaseParticle id 48 indSpecies 0 position 0.0367739965411712 0.00036 0 orientation 1 0 0 0 velocity 0 0 0 angularVelocity 0 0 0 force 0 0 0 torque 0 0 0 radius 0.00036 invMass 0
BaseParticle id 49 indSpecies 0 position 0.0367739965411712 0.00116 0 orientation 1 0 0 0 velocity 0 0 0 angularVelocity 0 0 0 force 0 0 0 torque 0 0 0 radius 0.00036 invMass 0
BaseParticle id 50 indSpecies 0 position 0.0375012692684439 0.00036 0 orientation 1 0 0 0 velocity 0 0 0 angularVelocity 0 0 0 force 0 0 0 torque 0 0 0 radius 0.00036 invMass 0
BaseParticle id 51 indSpecies 0 position 0.0375012692684439 0.00116 0 orientation 1 0 0 0 velocity 0 0 0 angularVelocity 0 0 0 force 0 0 0 torque 0 0 0 radius 0.00036 invMass 0
BaseParticle id 52 indSpecies 0 position 0.0382285419957166 0.00036 0 orientation 1 0 0 0 velocity 0 0 0 angularVelocity 0 0 0 force 0 0 0 torque 0 0 0 radius 0.00036 invMass 0
BaseParticle id 53 indSpecies 0 position 0.0382285419957166 0.00116 0 orientation 1 0 0 0 velocity 0 0 0 angularVelocity 0 0 0 force 0 0 0 torque 0 0 0 radius 0.00036 invMass 0
BaseParticle id 54 indSpecies 0 position 0.0389558147229894 0.00036 0 orientation 1 0 0 0 velocity 0 0 0 angularVelocity 0 0 0 force 0 0 0 torque 0 0 0 radius 0.00036 invMass 0
BaseParticle id 55 indSpecies 0 position 0.0389558147229894 0.00116 0 orientation 1 0 0 0 velocity 0 0 0 angularVelocity 0 0 0 force 0 0 0 torque 0 0 0 radius 0.00036 invMass 0
BaseParticle id 56 indSpecies 0 position 0.0396830874502621 0.00036 0 orientation 1 0 0 0 velocity 0 0 0 angularVelocity 0 0 0 force 0 0 0 torque 0 0 0 radius 0.00036 invMass 0
BaseParticle id 57 indSpecies 0 position 0.0396830874502621 0.00116 0 orientation 1 0 0 0 velocity 0 0 0 angularVelocity 0 0 0 force 0 0 0 torque 0 0 0 radius 0.00036 invMass 0
BaseParticle id 58 indSpecies 0 position 0.0404103601775348 0.00036 0 orientation 1 0 0 0 velocity 0 0 0 angularVelocity 0 0 0 force 0 0 0 torque 0 0 0 radius 0.00036 invMass 0
BaseParticle id 59 indSpecies 0 position 0.0404103601775348 0.00116 0 orientation 1 0 0 0 velocity 0 0 0 angularVelocity 0 0 0 force 0 0 0 torque 0 0 0 radius 0.00036 invMass 0
BaseParticle id 60 indSpecies 0 position 0.0411376329048075 0.00036 0 orientation 1 0 0 0 velocity 0 0 0 angularVelocity 0 0 0 force 0 0 0 torque 0 0 0 radius 0.00036 invMass 0
BaseParticle id 61 indSpecies 0 position 0.0411376329048075 0.00116 0 orientation 1 0 0 0 velocity 0 0 0 angularVelocity 0 0 0 force 0 0 0 torque 0 0 0 radius 0.00036 invMass 0
BaseParticle id 62 indSpecies 0 position 0.0418649056320803 0.00036 0 orientation 1 0 0 0 velocity 0 0 0 angularVelocity 0 0 0 force 0 0 0 torque 0 0 0 radius 0.00036 invMass 0
BaseParticle id 63 indSpecies 0 position 0.0418649056320803 0.00116 0 orientation 1 0 0 0 velocity 0 0 0 angularVelocity 0 0 0 force 0 0 0 torque 0 0 0 radius 0.00036 invMass 0
BaseParticle id 64 indSpecies 0 position 0.042592178359353 0.00036 0 orientation 1 0 0 0 velocity 0 0 0 angularVelocity 0 0 0 force 0 0 0 torque 0 0 0 radius 0.00036 invMass 0
BaseParticle id 65 indSpecies 0 position 0.042592178359353 0.00116 0 orientation 1 0 0 0 velocity 0 0 0 angularVelocity 0 0 0 force 0 0 0 torque 0 0 0 radius 0.00036 invMass 0
BaseParticle id 66 indSpecies 0 position 0.0433194510866257 0.00036 0 orientation 1 0 0 0 velocity 0 0 0 angularVelocity 0 0 0 force 0 0 0 torque 0 0 0 radius 0.00036 invMass 0
BaseParticle id 67 indSpecies 0 position 0.0433194510866257 0.00116 0 orientation 1 0 0 0 velocity 0 0 0 angularVelocity 0 0 0 force 0 0 0 torque 0 0 0 radius 0.00036 invMass 0
BaseParticle id 68 indSpecies 0 position 0.0440467238138984 0.00036 0 orientation 1 0 0 0 velocity 0 0 0 angularVelocity 0 0 0 force 0 0 0 torque 0 0 0 radius 0.00036 invMass 0
BaseParticle id 69 indSpecies 0 position 0.0440467238138984 0.00116 0 orientation 1 0 0 0 velocity 0 0 0 angularVelocity 0 0 0 force 0 0 0 torque 0 0 0 radius 0.00036 invMass 0
BaseParticle id 70 indSpecies 0 position 0.0447739965411712 0.00036 0 orientation 1 0 0 0 velocity 0 0 0 angularVelocity 0 0 0 force 0 0 0 torque 0 0 0 radius 0.00036 invMass 0
BaseParticle id 71 indSpecies 0 position 0.0447739965411712 0.00116 0 orientation 1 0 0 0 velocity 0 0 0 angularVelocity 0 0 0 force 0 0 0 torque 0 0 0 radius 0.00036 invMass 0
BaseParticle id 72 indSpecies 0 position 0.0455012692684439 0.00036 0 orientation 1 0 0 0 velocity 0 0 0 angularVelocity 0 0 0 force 0 0 0 torque 0 0 0 radius 0.00036 invMass 0
BaseParticle id 73 indSpecies 0 position 0.0455012692684439 0.00116 0 orientation 1 0 0 0 velocity 0 0 0 angularVelocity 0 0 0 force 0 0 0 torque 0 0 0 radius 0.00036 invMass 0
BaseParticle id 74 indSpecies 0 position 0.0462285419957166 0.00036 0 orientation 1 0 0 0 velocity 0 0 0 angularVelocity 0 0 0 force 0 0 0 torque 0 0 0 radius 0.00036 invMass 0
BaseParticle id 75 indSpecies 0 position 0.0462285419957166 0.00116 0 orientation 1 0 0 0 velocity 0 0 0 angularVelocity 0 0 0 force 0 0 0 torque 0 0 0 radius 0.00036 invMass 0
BaseParticle id 76 indSpecies 0 position 0.0469558147229893 0.00036 0 orientation 1 0 0 0 velocity 0 0 0 angularVelocity 0 0 0 force 0 0 0 torque 0 0 0 radius 0.00036 invMass 0
BaseParticle id 77 indSpecies 0 position 0.0469558147229893 0.00116 0 orientation 1 0 0 0 velocity 0 0 0 angularVelocity 0 0 0 force 0 0 0 torque 0 0 0 radius 0.00036 invMass 0
BaseParticle id 78 indSpecies 0 position 0.0476830874502621 0.00036 0 orientation 1 0 0 0 velocity 0 0 0 angularVelocity 0 0 0 force 0 0 0 torque 0 0 0 radius 0.00036 invMass 0
BaseParticle id 79 indSpecies 0 position 0.0476830874502621 0.00116 0 orientation 1 0 0 0 velocity 0 0 0 angularVelocity 0 0 0 force 0 0 0 torque 0 0 0 radius 0.00036 invMass 0
BaseParticle id 80 indSpecies 0 position 0.0484103601775348 0.00036 0 orientation 1 0 0 0 velocity 0 0 0 angularVelocity 0 0 0 force 0 0 0 torque 0 0 0 radius 0.00036 invMass 0
BaseParticle id 81 indSpecies 0 position 0.0484103601775348 0.00116 0 orientation 1 0 0 0 velocity 0 0 0 angularVelocity 0 0 0 force 0 0 0 torque 0 0 0 radius 0.00036 invMass 0
BaseParticle id 82 indSpecies 0 position 0.0491376329048075 0.00036 0 orientation 1 0 0 0 velocity 0 0 0 angularVelocity 0 0 0 force 0 0 0 torque 0 0 0 radius 0.00036 invMass 0
BaseParticle id 83 indSpecies 0 position 0.0491376329048075 0.00116 0 orientation 1 0 0 0 velocity 0 0 0 angularVelocity 0 0 0 force 0 0 0 torque 0 0 0 radius 0.00036 invMass 0
BaseParticle id 84 indSpecies 0 position 0.0498649056320803 0.00036 0 orientation 1 0 0 0 velocity 0 0 0 angularVelocity 0 0 0 force 0 0 0 torque 0 0 0 radius 0.00036 invMass 0
BaseParticle id 85 indSpecies 0 position 0.0498649056320803 0.00116 0 orientation 1 0 0 0 velocity 0 0 0 angularVelocity 0 0 0 force 0 0 0 torque 0 0 0 radius 0.00036 invMass 0
BaseParticle id 86 indSpecies 0 position 0.050592178359353 0.00036 0 orientation 1 0 0 0 velocity 0 0 0 angularVelocity 0 0 0 force 0 0 0 torque 0 0 0 radius 0.00036 invMass 0
BaseParticle id 87 indSpecies 0 position 0.050592178359353 0.00116 0 orientation 1 0 0 0 velocity 0 0 0 angularVelocity 0 0 0 force 0 0 0 torque 0 0 0 radius 0.00036 invMass 0
BaseParticle id 88 indSpecies 0 position 0.0513194510866257 0.00036 0 orientation 1 0 0 0 velocity 0 0 0 angularVelocity 0 0 0 force 0 0 0 torque 0 0 0 radius 0.00036 invMass 0
BaseParticle id 89 indSpecies 0 position 0.0513194510866257 0.00116 0 orientation 1 0 0 0 velocity 0 0 0 angularVelocity 0 0 0 force 0 0 0 torque 0 0 0 radius 0.00036 invMass 0
BaseParticle id 90 indSpecies 0 position 0.0520467238138984 0.00036 0 orientation 1 0 0 0 velocity 0 0 0 angularVelocity 0 0 0 force 0 0 0 torque 0 0 0 radius 0.00036 invMass 0
BaseParticle id 91 indSpecies 0 position 0.0520467238138984 0.00116 0 orientation 1 0 0 0 velocity 0 0 0 angularVelocity 0 0 0 force 0 0 0 torque 0 0 0 radius 0.00036 invMass 0
BaseParticle id 92 indSpecies 0 position 0.0527739965411712 0.00036 0 orientation 1 0 0 0 velocity 0 0 0 angularVelocity 0 0 0 force 0 0 0 torque 0 0 0 radius 0.00036 invMass 0
BaseParticle id 93 indSpecies 0 position 0.0527739965411712 0.00116 0 orientation 1 0 0 0 velocity 0 0 0 angularVelocity 0 0 0 force 0 0 0 torque 0 0 0 radius 0.00036 invMass 0
BaseParticle id 94 indSpecies 0 position 0.0535012692684439 0.00036 0 orientation 1 0 0 0 velocity 0 0 0 angularVelocity 0 0 0 force 0 0 0 torque 0 0 0 radius 0.00036 invMass 0
BaseParticle id 95 indSpecies 0 position 0.0535012692684439 0.00116 0 orientation 1 0 0 0 velocity 0 0 0 angularVelocity 0 0 0 force 0 0 0 torque 0 0 0 radius 0.00036 invMass 0
BaseParticle id 96 indSpecies 0 position 0.0542285419957166 0.00036 0 orientation 1 0 0 0 velocity 0 0 0 angularVelocity 0 0 0 force 0 0 0 torque 0 0 0 radius 0.00036 invMass 0
BaseParticle id 97 indSpecies 0 position 0.0542285419957166 0.00116 0 orientation 1 0 0 0 velocity 0 0 0 angularVelocity 0 0 0 force 0 0 0 torque 0 0 0 radius 0.00036 invMass 0
BaseParticle id 98 indSpecies 0 position 0.0549558147229894 0.00036 0 orientation 1 0 0 0 velocity 0 0 0 angularVelocity 0 0 0 force 0 0 0 torque 0 0 0 radius 0.00036 invMass 0
BaseParticle id 99 indSpecies 0 position 0.0549558147229894 0.00116 0 orientation 1 0 0 0 velocity 0 0 0 angularVelocity 0 0 0 force 0 0 0 torque 0 0 0 radius 0.00036 invMass 0
BaseParticle id 100 indSpecies 0 position 0.0556830874502621 0.00036 0 orientation 1 0 0 0 velocity 0 0 0 angularVelocity 0 0 0 force 0 0 0 torque 0 0 0 radius 0.00036 invMass 0
BaseParticle id 101 indSpecies 0 position 0.0556830874502621 0.00116 0 orientation 1 0 0 0 velocity 0 0 0 angularVelocity 0 0 0 force 0 0 0 torque 0 0 0 radius 0.00036 invMass 0
BaseParticle id 102 indSpecies 0 position 0.0564103601775348 0.00036 0 orientation 1 0 0 0 velocity 0 0 0 angularVelocity 0 0 0 force 0 0 0 torque 0 0 0 radius 0.00036 invMass 0
BaseParticle id 103 indSpecies 0 position 0.0564103601775348 0.00116 0 orientation 1 0 0 0 velocity 0 0 0 angularVelocity 0 0 0 force 0 0 0 torque 0 0 0 radius 0.00036 invMass 0
BaseParticle id 104 indSpecies 0 position 0.0571376329048075 0.00036 0 orientation 1 0 0 0 velocity 0 0 0 angularVelocity 0 0 0 force 0 0 0 torque 0 0 0 radius 0.00036 invMass 0
BaseParticle id 105 indSpecies 0 position 0.0571376329048075 0.00116 0 orientation 1 0 0 0 velocity 0 0 0 angularVelocity 0 0 0 force 0 0 0 torque 0 0 0 radius 0.00036 invMass 0
BaseParticle id 106 indSpecies 0 position 0.0578649056320803 0.00036 0 orientation 1 0 0 0 velocity 0 0 0 angularVelocity 0 0 0 force 0 0 0 torque 0 0 0 radius 0.00036 invMass 0
BaseParticle id 107 indSpecies 0 position 0.0578649056320803 0.00116 0 orientation 1 0 0 0 velocity 0 0 0 angularVelocity 0 0 0 force 0 0 0 torque 0 0 0 radius 0.00036 invMass 0
BaseParticle id 108 indSpecies 0 position 0.058592178359353 0.00036 0 orientation 1 0 0 0 velocity 0 0 0 angularVelocity 0 0 0 force 0 0 0 torque 0 0 0 radius 0.00036 invMass 0
BaseParticle id 109 indSpecies 0 position 0.058592178359353 0.00116 0 orientation 1 0 0 0 velocity 0 0 0 angularVelocity 0 0 0 force 0 0 0 torque 0 0 0 radius 0.00036 invMass 0
BaseParticle id 110 indSpecies 0 position 0.0298502304545023 0.000756819433379444 0.022759010835345 orientation 1 0 0 0 velocity 0.0170243284199239 0 -0.096549764259115 angularVelocity 0 0 0 force 7.61323957425462e-07 0 -4.31768271858643e-06 torque 0 0 0 radius 0.00035437067833322 invMass 2235253.63222597
BaseParticle id 111 indSpecies 0 position 0.0292595539523153 0.000406604594604928 0.0212073777723218 orientation 1 0 0 0 velocity 0.0170243284199239 0 -0.096549764259115 angularVelocity 0 0 0 force 8.69716976805963e-07 0 -4.93241007877253e-06 torque 0 0 0 radius 0.000370448007834658 invMass 1956673.4771415
BaseParticle id 112 indSpecies 0 position 0.0149515843420773 0.00104228746309805 0.0180009164238965 orientation 1 0 0 0 velocity 0.0170243284199239 0 -0.096549764259115 angularVelocity 0 0 0 force 7.5318259575864e-07 0 -4.27151076217845e-06 torque 0 0 0 radius 0.000353102972104118 invMass 2259415.11489898
BaseParticle id 113 indSpecies 0 position 0.02264734752751 0.000665035230083721 0.0195592298165573 orientation 1 0 0 0 velocity 0.0170243284199239 0 -0.096549764259115 angularVelocity 0 0 0 force 8.72838804514599e-07 0 -4.9501148435005e-06 torque 0 0 0 radius 0.000370890716564943 invMass 1949675.16606035
BaseParticle id 114 indSpecies 0 position 0.0193162985199083 0.000708598666924245 0.0186145839820255 orientation 1 0 0 0 velocity 0.0170243284199239 0 -0.096549764259115 angularVelocity 0 0 0 force 1.047417127008e-06 0 -5.94019770995667e-06 torque 0 0 0 radius 0.000394131522929173 invMass 1624712.92215458
BaseParticle id 115 indSpecies 0 position 0.0285856531538358 0.000529548063484182 0.0225168514708534 orientation 1 -3.03152284743392e-18 5.88408077022469e-17 -8.16648075003853e-18 velocity 0.015958149584935 0.00319928709855749 -0.0730917320159674 angularVelocity -4.01719986858239e-15 7.72181273381602e-14 -1.07194684276067e-14 force 7.41564622217573e-07 0 -4.20562196005419e-06 torque 0 0 0 radius 0.000351277997762637 invMass 2294813.00772818
BaseParticle id 116 indSpecies 0 position 0.0093277498893202 0.00105472511288798 0.0198102828061292 orientation 1 0 0 0 velocity 0.0170243284199239 0 -0.096549764259115 angularVelocity 0 0 0 force 6.55682660025533e-07 0 -3.71856114924139e-06 torque 0 0 0 radius 0.000337157258598919 invMass 2595389.88124171
BaseParticle id 117 indSpecies 0 position 0.0158403191367512 0.000932290528769434 0.0192856811147437 orientation 1 3.31872088390509e-19 4.27447077405436e-19 4.85168568468936e-20 velocity 0.0192058132154989 -0.00229221810840071 -0.0901600652650426 angularVelocity 6.94320349937908e-15 3.68429847660714e-14 1.1016834777844e-14 force 7.29457901916277e-06 -6.79836344313585e-06 1.4274127866779e-05 torque 8.27180612553028e-25 3.18464535832916e-23 1.1270335846035e-23 radius 0.000363088122864172 invMass 2078088.41261921
BaseParticle id 118 indSpecies 0 position 0.0116251306572234 0.000969517406971452 0.0195194188319334 orientation 1 0 0 0 velocity 0.0170243284199239 0 -0.096549764259115 angularVelocity 0 0 0 force 1.08567799778812e-06 0 -6.1571858908147e-06 torque 0 0 0 radius 0.000398873294220424 invMass 1567455.67710034
BaseParticle id 119 indSpecies 0 position 0.0138176953396114 0.000835100294510005 0.02290448861591 orientation 1 0 0 0 velocity 0.0170243284199239 0 -0.096549764259115 angularVelocity 0 0 0 force 6.52823930563808e-07 0 -3.7023484888179e-06 torque 0 0 0 radius 0.000336666550918793 invMass 2606755.14708262
BaseParticle id 120 indSpecies 0 position 0.0308684132632267 0.000859350728268488 0.0213903813446864 orientation 1 0 0 0 velocity 0.0170243284199239 0 -0.096549764259115 angularVelocity 0 0 0 force 9.89393341470921e-07 0 -5.61112846993485e-06 torque 0 0 0 radius 0.000386714932558392 invMass 1719995.54656992
BaseParticle id 121 indSpecies 0 position 0.0261847389730295 0.000784067053097411 0.0238046701972539 orientation 1 0 0 0 velocity 0.0170243284199239 0 -0.096549764259115 angularVelocity 0 0 0 force 6.43038468665967e-07 0 -3.64685237666011e-06 torque 0 0 0 radius 0.000334975928277731 invMass 2646423.54082849
BaseParticle id 122 indSpecies 0 position 0.0153439634211583 0.000423304181037636 0.0198627837165397 orientation 1 9.0448939285893e-17 1.5220079453523e-16 -1.64275281268382e-17 velocity 0.0259815217427735 -0.00468688897978814 -0.0911155771733999 angularVelocity 2.86563615891713e-14 4.82374980693456e-14 -5.18189510965259e-15 force 6.29507265449472e-07 0 -3.57011310986085e-06 torque 0 0 0 radius 0.00033260966389197 invMass 2703308.18171075
BaseParticle id 123 indSpecies 0 position 0.0163599149687537 0.000777666659778493 0.0181058944259076 orientation 1 0 0 0 velocity 0.0170243284199239 0 -0.096549764259115 angularVelocity 0 0 0 force 8.48051874118527e-07 0 -4.80954117578113e-06 torque 0 0 0 radius 0.000367346089065684 invMass 2006660.43324854
BaseParticle id 124 indSpecies 0 position 0.0297032985656638 0.00109302601291261 0.0246347333683811 orientation 1 -7.76985200779244e-18 5.84109734016918e-17 9.84039196259759e-18 velocity 0.0209373570017774 -0.00375619608117361 -0.0987281332314498 angularVelocity 9.18452575988692e-15 -1.08305819714473e-14 4.3775812927175e-15 force 8.43772570410711e-07 0 -4.78527203846237e-06 torque 0 0 0 radius 0.000366727165834301 invMass 2016837.47589422
BaseParticle id 125 indSpecies 0 position 0.0263990270763208 0.000906056868602796 0.0246570015883973 orientation 1 0 0 0 velocity 0.0170243284199239 0 -0.096549764259115 angularVelocity 0 0 0 force 5.77706400359922e-07 0 -3.27633580543802e-06 torque 0 0 0 radius 0.000323224054795481 invMass 2945704.15019756
BaseParticle id 126 indSpecies 0 position 0.0109097836676995 0.0011297121193488 0.0186057646310306 orientation 1 0 0 0 velocity 0.0170243284199239 0 -0.096549764259115 angularVelocity 0 0 0 force 8.70222200158131e-07 0 -4.93527534278453e-06 torque 0 0 0 radius 0.000370519725707807 invMass 1955537.49470731
BaseParticle id 127 indSpecies 0 position 0.0169704490308417 0.0010349099465331 0.0202714271702574 orientation 1 -7.54873843494458e-19 -9.70862519492744e-19 4.67186365564157e-19 velocity 0.0200191715133137 0.000474226228466392 -0.0906999001365892 angularVelocity -2.07129794748624e-15 -8.99768271164631e-16 1.14131943349618e-15 force 1.02784089708868e-06 0 -5.82917539311857e-06 torque 0 0 0 radius 0.00039166062482478 invMass 1655657.16051586
BaseParticle id 128 indSpecies 0 position 0.0183646866119171 0.000585013576948024 0.0216364974954691 orientation 1 -4.56966019629515e-17 -3.75625792763098e-16 8.54490729528698e-17 velocity 0.00326839408005141 0.00675523540042999 -0.0530994431261791 angularVelocity -1.74229699606705e-14 -1.6028549330801e-13 3.79522855948179e-14 force 5.80433425993795e-07 0 -3.29180153633703e-06 torque 0 0 0 radius 0.000323731842708092 invMass 2931864.47390111
BaseParticle id 129 indSpecies 0 position 0.0271170699719311 0.00123854179308118 0.020126138399054 orientation 1 0 0 0 velocity 0.0170243284199239 0 -0.096549764259115 angularVelocity 0 0 0 force 5.84004293403626e-07 0 -3.31205293175867e-06 torque 0 0 0 radius 0.000324394359659036 invMass 2913937.7233307