restart_version 1.0 name HopperSelfTest
dataFile    fileType ONE_FILE saveCount 51 counter 26 lastSavedTimeStep 1251
fStatFile   fileType ONE_FILE saveCount 51 counter 26 lastSavedTimeStep 1251
eneFile     fileType ONE_FILE saveCount 51 counter 26 lastSavedTimeStep 1251
restartFile fileType ONE_FILE saveCount 51 counter 26 lastSavedTimeStep 1251
statFile    fileType ONE_FILE saveCount 51 counter 0
interactionFile fileType NO_FILE saveCount 0 counter 0
xMin 0 xMax 0.0589594510866257 yMin 0 yMax 0.0016 zMin 0 zMax 0.0280887601170343
timeStep 8e-06 time 0.010008 ntimeSteps 1251 timeMax 0.01
systemDimensions 3 particleDimensions 3 gravity 1.70175214113592 0 -9.65111597951964 writeVTK 0 NO_FILE NO_FILE random  0 1103515245 12345 1073741824 607 273 784607267
Species 1
LinearViscoelasticSlidingFrictionSpecies id 0 density 2400 stiffness 14.4701448167677 dissipation 6.01461669101624e-05 slidingStiffness 0 slidingDissipation 0 slidingFrictionCoefficient 0.5 slidingFrictionCoefficientStatic 0.5
Walls 5
InfiniteWall id 0 indSpecies 0 position 0 0 0 orientation 0.707106781186548 0 0 -0.707106781186548 velocity 0 0 0 angularVelocity 0 0 0 force 0 -5.16608718925508e-05 0 torque 1.36666921800279e-06 0 -1.86428938998755e-06
InfiniteWall id 1 indSpecies 0 position 0 0.0016 0 orientation 0.707106781186548 0 0 0.707106781186548 velocity 0 0 0 angularVelocity 0 0 0 force 0 0 0 torque 0 0 0
InfiniteWall id 2 indSpecies 0 position 0 0 -0.000727272727272727 orientation 0.707106781186548 0 0.707106781186548 0 velocity 0 0 0 angularVelocity 0 0 0 force 0 0 0 torque 0 0 0
IntersectionOfWalls id 3 indSpecies 0 position 0 0 0 orientation 1 0 0 0 velocity 0 0 0 angularVelocity 0 0 0 force 0 0 0 torque 0 0 0 numIntersectionOfWalls 3 position 0 0 0.0211428330103571 orientation 0.17364817766693 0 0.984807753012208 0 position 0.0295442325903662 0 -0.0600292789067895 orientation 0.996194698091745 0 -0.0871557427476582 0 position 0.0189594510866257 0 0 orientation 0.933944001109067 0 -0.357419365441196 0
IntersectionOfWalls id 4 indSpecies 0 position 0 0 0 orientation 1 0 0 0 velocity 0 0 0 angularVelocity 0 0 0 force 0 0 0 torque 0 0 0 numIntersectionOfWalls 3 position 0.0393923101204883 0 0.0280887601170343 orientation 1 0 -0 0 position 0.0393923101204883 0 -0.0582927971301202 orientation 0.0871557427476577 0 0.996194698091746 0 position 0.0273772354288139 0 0.00984807753012208 orientation 0.287132810912366 0 -0.957890781298976 0
Boundaries 1
HopperInsertionBoundary id 0 maxFailed 1 numberOfParticlesInserted 265 yMin 0 yMax 0.0016 radMin 0.00032 radMax 0.0004 chuteAngle 0.174532925199433 fixedParticleRadius 0.00036 isHopperCentred_ 0 hopperDim 1 hopperAngle 1.0471975511966 hopperLength 0.04 hopperExitLength 0.01 hopperHeight 0.0241139 lift 0 fillPercent 50
Particles 375
BaseParticle id 0 indSpecies 0 position 0.0193194510866257 0.00036 0 orientation 1 0 0 0 velocity 0 0 0 angularVelocity 0 0 0 force 0 0 0 torque 0 0 0 radius 0.00036 invMass 0
BaseParticle id 1 indSpecies 0 position 0.0193194510866257 0.00116 0 orientation 1 0 0 0 velocity 0 0 0 angularVelocity 0 0 0 force 0 0 0 torque 0 0 0 radius 0.00036 invMass 0
BaseParticle id 2 indSpecies 0 position 0.0200467238138984 0.00036 0 orientation 1 0 0 0 velocity 0 0 0 angularVelocity 0 0 0 force 0 0 0 torque 0 0 0 radius 0.00036 invMass 0
BaseParticle id 3 indSpecies 0 position 0.0200467238138984 0.00116 0 orientation 1 0 0 0 velocity 0 0 0 angularVelocity 0 0 0 force 0 0 0 torque 0 0 0 radius 0.00036 invMass 0
BaseParticle id 4 indSpecies 0 position 0.0207739965411712 0.00036 0 orientation 1 0 0 0 velocity 0 0 0 angularVelocity 0 0 0 force 0 0 0 torque 0 0 0 radius 0.00036 invMass 0
BaseParticle id 5 indSpecies 0 position 0.0207739965411712 0.00116 0 orientation 1 0 0 0 velocity 0 0 0 angularVelocity 0 0 0 force 0 0 0 torque 0 0 0 radius 0.00036 invMass 0
BaseParticle id 6 indSpecies 0 position 0.0215012692684439 0.00036 0 orientation 1 0 0 0 velocity 0 0 0 angularVelocity 0 0 0 force 0 0 0 torque 0 0 0 radius 0.00036 invMass 0
BaseParticle id 7 indSpecies 0 position 0.0215012692684439 0.00116 0 orientation 1 0 0 0 velocity 0 0 0 angularVelocity 0 0 0 force 0 0 0 torque 0 0 0 radius 0.00036 invMass 0
BaseParticle id 8 indSpecies 0 position 0.0222285419957166 0.00036 0 orientation 1 0 0 0 velocity 0 0 0 angularVelocity 0 0 0 force 0 0 0 torque 0 0 0 radius 0.00036 invMass 0
BaseParticle id 9 indSpecies 0 position 0.0222285419957166 0.00116 0 orientation 1 0 0 0 velocity 0 0 0 angularVelocity 0 0 0 force 0 0 0 torque 0 0 0 radius 0.00036 invMass 0
BaseParticle id 10 indSpecies 0 position 0.0229558147229893 0.00036 0 orientation 1 0 0 0 velocity 0 0 0 angularVelocity 0 0 0 force 0 0 0 torque 0 0 0 radius 0.00036 invMass 0
BaseParticle id 11 indSpecies 0 position 0.0229558147229893 0.00116 0 orientation 1 0 0 0 velocity 0 0 0 angularVelocity 0 0 0 force 0 0 0 torque 0 0 0 radius 0.00036 invMass 0
BaseParticle id 12 indSpecies 0 position 0.0236830874502621 0.00036 0 orientation 1 0 0 0 velocity 0 0 0 angularVelocity 0 0 0 force 0 0 0 torque 0 0 0 radius 0.00036 invMass 0
BaseParticle id 13 indSpecies 0 position 0.0236830874502621 0.00116 0 orientation 1 0 0 0 velocity 0 0 0 angularVelocity 0 0 0 force 0 0 0 torque 0 0 0 radius 0.00036 invMass 0
BaseParticle id 14 indSpecies 0 position 0.0244103601775348 0.00036 0 orientation 1 0 0 0 velocity 0 0 0 angularVelocity 0 0 0 force 0 0 0 torque 0 0 0 radius 0.00036 invMass 0
BaseParticle id 15 indSpecies 0 position 0.0244103601775348 0.00116 0 orientation 1 0 0 0 velocity 0 0 0 angularVelocity 0 0 0 force 0 0 0 torque 0 0 0 radius 0.00036 invMass 0
BaseParticle id 16 indSpecies 0 position 0.0251376329048075 0.00036 0 orientation 1 0 0 0 velocity 0 0 0 angularVelocity 0 0 0 force 0 0 0 torque 0 0 0 radius 0.00036 invMass 0
BaseParticle id 17 indSpecies 0 position 0.0251376329048075 0.00116 0 orientation 1 0 0 0 velocity 0 0 0 angularVelocity 0 0 0 force 0 0 0 torque 0 0 0 radius 0.00036 invMass 0
BaseParticle id 18 indSpecies 0 position 0.0258649056320803 0.00036 0 orientation 1 0 0 0 velocity 0 0 0 angularVelocity 0 0 0 force 0 0 0 torque 0 0 0 radius 0.00036 invMass 0
BaseParticle id 19 indSpecies 0 position 0.0258649056320803 0.00116 0 orientation 1 0 0 0 velocity 0 0 0 angularVelocity 0 0 0 force 0 0 0 torque 0 0 0 radius 0.00036 invMass 0
BaseParticle id 20 indSpecies 0 position 0.026592178359353 0.00036 0 orientation 1 0 0 0 velocity 0 0 0 angularVelocity 0 0 0 force 0 0 0 torque 0 0 0 radius 0.00036 invMass 0
BaseParticle id 21 indSpecies 0 position 0.026592178359353 0.00116 0 orientation 1 0 0 0 velocity 0 0 0 angularVelocity 0 0 0 force 0 0 0 torque 0 0 0 radius 0.00036 invMass 0
BaseParticle id 22 indSpecies 0 position 0.0273194510866257 0.00036 0 orientation 1 0 0 0 velocity 0 0 0 angularVelocity 0 0 0 force 0 0 0 torque 0 0 0 radius 0.00036 invMass 0
BaseParticle id 23 indSpecies 0 position 0.0273194510866257 0.00116 0 orientation 1 0 0 0 velocity 0 0 0 angularVelocity 0 0 0 force 0 0 0 torque 0 0 0 radius 0.00036 invMass 0
BaseParticle id 24 indSpecies 0 position 0.0280467238138984 0.00036 0 orientation 1 0 0 0 velocity 0 0 0 angularVelocity 0 0 0 force 0 0 0 torque 0 0 0 radius 0.00036 invMass 0
BaseParticle id 25 indSpecies 0 position 0.0280467238138984 0.00116 0 orientation 1 0 0 0 velocity 0 0 0 angularVelocity 0 0 0 force 0 0 0 torque 0 0 0 radius 0.00036 invMass 0
BaseParticle id 26 indSpecies 0 position 0.0287739965411712 0.00036 0 orientation 1 0 0 0 velocity 0 0 0 angularVelocity 0 0 0 force 0 0 0 torque 0 0 0 radius 0.00036 invMass 0
BaseParticle id 27 indSpecies 0 position 0.0287739965411712 0.00116 0 orientation 1 0 0 0 velocity 0 0 0 angularVelocity 0 0 0 force 0 0 0 torque 0 0 0 radius 0.00036 invMass 0
BaseParticle id 28 indSpecies 0 position 0.0295012692684439 0.00036 0 orientation 1 0 0 0 velocity 0 0 0 angularVelocity 0 0 0 force 0 0 0 torque 0 0 0 radius 0.00036 invMass 0
BaseParticle id 29 indSpecies 0 position 0.0295012692684439 0.00116 0 orientation 1 0 0 0 velocity 0 0 0 angularVelocity 0 0 0 force 0 0 0 torque 0 0 0 radius 0.00036 invMass 0
BaseParticle id 30 indSpecies 0 position 0.0302285419957166 0.00036 0 orientation 1 0 0 0 velocity 0 0 0 angularVelocity 0 0 0 force 0 0 0 torque 0 0 0 radius 0.00036 invMass 0
BaseParticle id 31 indSpecies 0 position 0.0302285419957166 0.00116 0 orientation 1 0 0 0 velocity 0 0 0 angularVelocity 0 0 0 force 0 0 0 torque 0 0 0 radius 0.00036 invMass 0
BaseParticle id 32 indSpecies 0 position 0.0309558147229893 0.00036 0 orientation 1 0 0 0 velocity 0 0 0 angularVelocity 0 0 0 force 0 0 0 torque 0 0 0 radius 0.00036 invMass 0
BaseParticle id 33 indSpecies 0 position 0.0309558147229893 0.00116 0 orientation 1 0 0 0 velocity 0 0 0 angularVelocity 0 0 0 force 0 0 0 torque 0 0 0 radius 0.00036 invMass 0
BaseParticle id 34 indSpecies 0 position 0.0316830874502621 0.00036 0 orientation 1 0 0 0 velocity 0 0 0 angularVelocity 0 0 0 force 0 0 0 torque 0 0 0 radius 0.00036 invMass 0
BaseParticle id 35 indSpecies 0 position 0.0316830874502621 0.00116 0 orientation 1 0 0 0 velocity 0 0 0 angularVelocity 0 0 0 force 0 0 0 torque 0 0 0 radius 0.00036 invMass 0
BaseParticle id 36 indSpecies 0 position 0.0324103601775348 0.00036 0 orientation 1 0 0 0 velocity 0 0 0 angularVelocity 0 0 0 force 0 0 0 torque 0 0 0 radius 0.00036 invMass 0
BaseParticle id 37 indSpecies 0 position 0.0324103601775348 0.00116 0 orientation 1 0 0 0 velocity 0 0 0 angularVelocity 0 0 0 force 0 0 0 torque 0 0 0 radius 0.00036 invMass 0
BaseParticle id 38 indSpecies 0 position 0.0331376329048075 0.00036 0 orientation 1 0 0 0 velocity 0 0 0 angularVelocity 0 0 0 force 0 0 0 torque 0 0 0 radius 0.00036 invMass 0
BaseParticle id 39 indSpecies 0 position 0.0331376329048075 0.00116 0 orientation 1 0 0 0 velocity 0 0 0 angularVelocity 0 0 0 force 0 0 0 torque 0 0 0 radius 0.00036 invMass 0
BaseParticle id 40 indSpecies 0 position 0.0338649056320803 0.00036 0 orientation 1 0 0 0 velocity 0 0 0 angularVelocity 0 0 0 force 0 0 0 torque 0 0 0 radius 0.00036 invMass 0
BaseParticle id 41 indSpecies 0 position 0.0338649056320803 0.00116 0 orientation 1 0 0 0 velocity 0 0 0 angularVelocity 0 0 0 force 0 0 0 torque 0 0 0 radius 0.00036 invMass 0
BaseParticle id 42 indSpecies 0 position 0.034592178359353 0.00036 0 orientation 1 0 0 0 velocity 0 0 0 angularVelocity 0 0 0 force 0 0 0 torque 0 0 0 radius 0.00036 invMass 0
BaseParticle id 43 indSpecies 0 position 0.034592178359353 0.00116 0 orientation 1 0 0 0 velocity 0 0 0 angularVelocity 0 0 0 force 0 0 0 torque 0 0 0 radius 0.00036 invMass 0
BaseParticle id 44 indSpecies 0 position 0.0353194510866257 0.00036 0 orientation 1 0 0 0 velocity 0 0 0 angularVelocity 0 0 0 force 0 0 0 torque 0 0 0 radius 0.00036 invMass 0
BaseParticle id 45 indSpecies 0 position 0.0353194510866257 0.00116 0 orientation 1 0 0 0 velocity 0 0 0 angularVelocity 0 0 0 force 0 0 0 torque 0 0 0 radius 0.00036 invMass 0
BaseParticle id 46 indSpecies 0 position 0.0360467238138984 0.00036 0 orientation 1 0 0 0 velocity 0 0 0 angularVelocity 0 0 0 force 0 0 0 torque 0 0 0 radius 0.00036 invMass 0
BaseParticle id 47 indSpecies 0 position 0.0360467238138984 0.00116 0 orientation 1 0 0 0 velocity 0 0 0 angularVelocity 0 0 0 force 0 0 0 torque 0 0 0 radius 0.00036 invMass 0
BaseParticle id 48 indSpecies 0 position 0.0367739965411712 0.00036 0 orientation 1 0 0 0 velocity 0 0 0 angularVelocity 0 0 0 force 0 0 0 torque 0 0 0 radius 0.00036 invMass 0
BaseParticle id 49 indSpecies 0 position 0.0367739965411712 0.00116 0 orientation 1 0 0 0 velocity 0 0 0 angularVelocity 0 0 0 force 0 0 0 torque 0 0 0 radius 0.00036 invMass 0
BaseParticle id 50 indSpecies 0 position 0.0375012692684439 0.00036 0 orientation 1 0 0 0 velocity 0 0 0 angularVelocity 0 0 0 force 0 0 0 torque 0 0 0 radius 0.00036 invMass 0
BaseParticle id 51 indSpecies 0 position 0.0375012692684439 0.00116 0 orientation 1 0 0 0 velocity 0 0 0 angularVelocity 0 0 0 force 0 0 0 torque 0 0 0 radius 0.00036 invMass 0
BaseParticle id 52 indSpecies 0 position 0.0382285419957166 0.00036 0 orientation 1 0 0 0 velocity 0 0 0 angularVelocity 0 0 0 force 0 0 0 torque 0 0 0 radius 0.00036 invMass 0
BaseParticle id 53 indSpecies 0 position 0.0382285419957166 0.00116 0 orientation 1 0 0 0 velocity 0 0 0 angularVelocity 0 0 0 force 0 0 0 torque 0 0 0 radius 0.00036 invMass 0
BaseParticle id 54 indSpecies 0 position 0.0389558147229894 0.00036 0 orientation 1 0 0 0 velocity 0 0 0 angularVelocity 0 0 0 force 0 0 0 torque 0 0 0 radius 0.00036 invMass 0
BaseParticle id 55 indSpecies 0 position 0.0389558147229894 0.00116 0 orientation 1 0 0 0 velocity 0 0 0 angularVelocity 0 0 0 force 0 0 0 torque 0 0 0 radius 0.00036 invMass 0
BaseParticle id 56 indSpecies 0 position 0.0396830874502621 0.00036 0 orientation 1 0 0 0 velocity 0 0 0 angularVelocity 0 0 0 force 0 0 0 torque 0 0 0 radius 0.00036 invMass 0
BaseParticle id 57 indSpecies 0 position 0.0396830874502621 0.00116 0 orientation 1 0 0 0 velocity 0 0 0 angularVelocity 0 0 0 force 0 0 0 torque 0 0 0 radius 0.00036 invMass 0
BaseParticle id 58 indSpecies 0 position 0.0404103601775348 0.00036 0 orientation 1 0 0 0 velocity 0 0 0 angularVelocity 0 0 0 force 0 0 0 torque 0 0 0 radius 0.00036 invMass 0
BaseParticle id 59 indSpecies 0 position 0.0404103601775348 0.00116 0 orientation 1 0 0 0 velocity 0 0 0 angularVelocity 0 0 0 force 0 0 0 torque 0 0 0 radius 0.00036 invMass 0
BaseParticle id 60 indSpecies 0 position 0.0411376329048075 0.00036 0 orientation 1 0 0 0 velocity 0 0 0 angularVelocity 0 0 0 force 0 0 0 torque 0 0 0 radius 0.00036 invMass 0
BaseParticle id 61 indSpecies 0 position 0.0411376329048075 0.00116 0 orientation 1 0 0 0 velocity 0 0 0 angularVelocity 0 0 0 force 0 0 0 torque 0 0 0 radius 0.00036 invMass 0
BaseParticle id 62 indSpecies 0 position 0.0418649056320803 0.00036 0 orientation 1 0 0 0 velocity 0 0 0 angularVelocity 0 0 0 force 0 0 0 torque 0 0 0 radius 0.00036 invMass 0
BaseParticle id 63 indSpecies 0 position 0.0418649056320803 0.00116 0 orientation 1 0 0 0 velocity 0 0 0 angularVelocity 0 0 0 force 0 0 0 torque 0 0 0 radius 0.00036 invMass 0
BaseParticle id 64 indSpecies 0 position 0.042592178359353 0.00036 0 orientation 1 0 0 0 velocity 0 0 0 angularVelocity 0 0 0 force 0 0 0 torque 0 0 0 radius 0.00036 invMass 0
BaseParticle id 65 indSpecies 0 position 0.042592178359353 0.00116 0 orientation 1 0 0 0 velocity 0 0 0 angularVelocity 0 0 0 force 0 0 0 torque 0 0 0 radius 0.00036 invMass 0
BaseParticle id 66 indSpecies 0 position 0.0433194510866257 0.00036 0 orientation 1 0 0 0 velocity 0 0 0 angularVelocity 0 0 0 force 0 0 0 torque 0 0 0 radius 0.00036 invMass 0
BaseParticle id 67 indSpecies 0 position 0.0433194510866257 0.00116 0 orientation 1 0 0 0 velocity 0 0 0 angularVelocity 0 0 0 force 0 0 0 torque 0 0 0 radius 0.00036 invMass 0
BaseParticle id 68 indSpecies 0 position 0.0440467238138984 0.00036 0 orientation 1 0 0 0 velocity 0 0 0 angularVelocity 0 0 0 force 0 0 0 torque 0 0 0 radius 0.00036 invMass 0
BaseParticle id 69 indSpecies 0 position 0.0440467238138984 0.00116 0 orientation 1 0 0 0 velocity 0 0 0 angularVelocity 0 0 0 force 0 0 0 torque 0 0 0 radius 0.00036 invMass 0
BaseParticle id 70 indSpecies 0 position 0.0447739965411712 0.00036 0 orientation 1 0 0 0 velocity 0 0 0 angularVelocity 0 0 0 force 0 0 0 torque 0 0 0 radius 0.00036 invMass 0
BaseParticle id 71 indSpecies 0 position 0.0447739965411712 0.00116 0 orientation 1 0 0 0 velocity 0 0 0 angularVelocity 0 0 0 force 0 0 0 torque 0 0 0 radius 0.00036 invMass 0
BaseParticle id 72 indSpecies 0 position 0.0455012692684439 0.00036 0 orientation 1 0 0 0 velocity 0 0 0 angularVelocity 0 0 0 force 0 0 0 torque 0 0 0 radius 0.00036 invMass 0
BaseParticle id 73 indSpecies 0 position 0.0455012692684439 0.00116 0 orientation 1 0 0 0 velocity 0 0 0 angularVelocity 0 0 0 force 0 0 0 torque 0 0 0 radius 0.00036 invMass 0
BaseParticle id 74 indSpecies 0 position 0.0462285419957166 0.00036 0 orientation 1 0 0 0 velocity 0 0 0 angularVelocity 0 0 0 force 0 0 0 torque 0 0 0 radius 0.00036 invMass 0
BaseParticle id 75 indSpecies 0 position 0.0462285419957166 0.00116 0 orientation 1 0 0 0 velocity 0 0 0 angularVelocity 0 0 0 force 0 0 0 torque 0 0 0 radius 0.00036 invMass 0
BaseParticle id 76 indSpecies 0 position 0.0469558147229893 0.00036 0 orientation 1 0 0 0 velocity 0 0 0 angularVelocity 0 0 0 force 0 0 0 torque 0 0 0 radius 0.00036 invMass 0
BaseParticle id 77 indSpecies 0 position 0.0469558147229893 0.00116 0 orientation 1 0 0 0 velocity 0 0 0 angularVelocity 0 0 0 force 0 0 0 torque 0 0 0 radius 0.00036 invMass 0
BaseParticle id 78 indSpecies 0 position 0.0476830874502621 0.00036 0 orientation 1 0 0 0 velocity 0 0 0 angularVelocity 0 0 0 force 0 0 0 torque 0 0 0 radius 0.00036 invMass 0
BaseParticle id 79 indSpecies 0 position 0.0476830874502621 0.00116 0 orientation 1 0 0 0 velocity 0 0 0 angularVelocity 0 0 0 force 0 0 0 torque 0 0 0 radius 0.00036 invMass 0
BaseParticle id 80 indSpecies 0 position 0.0484103601775348 0.00036 0 orientation 1 0 0 0 velocity 0 0 0 angularVelocity 0 0 0 force 0 0 0 torque 0 0 0 radius 0.00036 invMass 0
BaseParticle id 81 indSpecies 0 position 0.0484103601775348 0.00116 0 orientation 1 0 0 0 velocity 0 0 0 angularVelocity 0 0 0 force 0 0 0 torque 0 0 0 radius 0.00036 invMass 0
BaseParticle id 82 indSpecies 0 position 0.0491376329048075 0.00036 0 orientation 1 0 0 0 velocity 0 0 0 angularVelocity 0 0 0 force 0 0 0 torque 0 0 0 radius 0.00036 invMass 0
BaseParticle id 83 indSpecies 0 position 0.0491376329048075 0.00116 0 orientation 1 0 0 0 velocity 0 0 0 angularVelocity 0 0 0 force 0 0 0 torque 0 0 0 radius 0.00036 invMass 0
BaseParticle id 84 indSpecies 0 position 0.0498649056320803 0.00036 0 orientation 1 0 0 0 velocity 0 0 0 angularVelocity 0 0 0 force 0 0 0 torque 0 0 0 radius 0.00036 invMass 0
BaseParticle id 85 indSpecies 0 position 0.0498649056320803 0.00116 0 orientation 1 0 0 0 velocity 0 0 0 angularVelocity 0 0 0 force 0 0 0 torque 0 0 0 radius 0.00036 invMass 0
BaseParticle id 86 indSpecies 0 position 0.050592178359353 0.00036 0 orientation 1 0 0 0 velocity 0 0 0 angularVelocity 0 0 0 force 0 0 0 torque 0 0 0 radius 0.00036 invMass 0
BaseParticle id 87 indSpecies 0 position 0.050592178359353 0.00116 0 orientation 1 0 0 0 velocity 0 0 0 angularVelocity 0 0 0 force 0 0 0 torque 0 0 0 radius 0.00036 invMass 0
BaseParticle id 88 indSpecies 0 position 0.0513194510866257 0.00036 0 orientation 1 0 0 0 velocity 0 0 0 angularVelocity 0 0 0 force 0 0 0 torque 0 0 0 radius 0.00036 invMass 0
BaseParticle id 89 indSpecies 0 position 0.0513194510866257 0.00116 0 orientation 1 0 0 0 velocity 0 0 0 angularVelocity 0 0 0 force 0 0 0 torque 0 0 0 radius 0.00036 invMass 0
BaseParticle id 90 indSpecies 0 position 0.0520467238138984 0.00036 0 orientation 1 0 0 0 velocity 0 0 0 angularVelocity 0 0 0 force 0 0 0 torque 0 0 0 radius 0.00036 invMass 0
BaseParticle id 91 indSpecies 0 position 0.0520467238138984 0.00116 0 orientation 1 0 0 0 velocity 0 0 0 angularVelocity 0 0 0 force 0 0 0 torque 0 0 0 radius 0.00036 invMass 0
BaseParticle id 92 indSpecies 0 position 0.0527739965411712 0.00036 0 orientation 1 0 0 0 velocity 0 0 0 angularVelocity 0 0 0 force 0 0 0 torque 0 0 0 radius 0.00036 invMass 0
BaseParticle id 93 indSpecies 0 position 0.0527739965411712 0.00116 0 orientation 1 0 0 0 velocity 0 0 0 angularVelocity 0 0 0 force 0 0 0 torque 0 0 0 radius 0.00036 invMass 0
BaseParticle id 94 indSpecies 0 position 0.0535012692684439 0.00036 0 orientation 1 0 0 0 velocity 0 0 0 angularVelocity 0 0 0 force 0 0 0 torque 0 0 0 radius 0.00036 invMass 0
BaseParticle id 95 indSpecies 0 position 0.0535012692684439 0.00116 0 orientation 1 0 0 0 velocity 0 0 0 angularVelocity 0 0 0 force 0 0 0 torque 0 0 0 radius 0.00036 invMass 0
BaseParticle id 96 indSpecies 0 position 0.0542285419957166 0.00036 0 orientation 1 0 0 0 velocity 0 0 0 angularVelocity 0 0 0 force 0 0 0 torque 0 0 0 radius 0.00036 invMass 0
BaseParticle id 97 indSpecies 0 position 0.0542285419957166 0.00116 0 orientation 1 0 0 0 velocity 0 0 0 angularVelocity 0 0 0 force 0 0 0 torque 0 0 0 radius 0.00036 invMass 0
BaseParticle id 98 indSpecies 0 position 0.0549558147229894 0.00036 0 orientation 1 0 0 0 velocity 0 0 0 angularVelocity 0 0 0 force 0 0 0 torque 0 0 0 radius 0.00036 invMass 0
BaseParticle id 99 indSpecies 0 position 0.0549558147229894 0.00116 0 orientation 1 0 0 0 velocity 0 0 0 angularVelocity 0 0 0 force 0 0 0 torque 0 0 0 radius 0.00036 invMass 0
BaseParticle id 100 indSpecies 0 position 0.0556830874502621 0.00036 0 orientation 1 0 0 0 velocity 0 0 0 angularVelocity 0 0 0 force 0 0 0 torque 0 0 0 radius 0.00036 invMass 0
BaseParticle id 101 indSpecies 0 position 0.0556830874502621 0.00116 0 orientation 1 0 0 0 velocity 0 0 0 angularVelocity 0 0 0 force 0 0 0 torque 0 0 0 radius 0.00036 invMass 0
BaseParticle id 102 indSpecies 0 position 0.0564103601775348 0.00036 0 orientation 1 0 0 0 velocity 0 0 0 angularVelocity 0 0 0 force 0 0 0 torque 0 0 0 radius 0.00036 invMass 0
BaseParticle id 103 indSpecies 0 position 0.0564103601775348 0.00116 0 orientation 1 0 0 0 velocity 0 0 0 angularVelocity 0 0 0 force 0 0 0 torque 0 0 0 radius 0.00036 invMass 0
BaseParticle id 104 indSpecies 0 position 0.0571376329048075 0.00036 0 orientation 1 0 0 0 velocity 0 0 0 angularVelocity 0 0 0 force 0 0 0 torque 0 0 0 radius 0.00036 invMass 0
BaseParticle id 105 indSpecies 0 position 0.0571376329048075 0.00116 0 orientation 1 0 0 0 velocity 0 0 0 angularVelocity 0 0 0 force 0 0 0 torque 0 0 0 radius 0.00036 invMass 0
BaseParticle id 106 indSpecies 0 position 0.0578649056320803 0.00036 0 orientation 1 0 0 0 velocity 0 0 0 angularVelocity 0 0 0 force 0 0 0 torque 0 0 0 radius 0.00036 invMass 0
BaseParticle id 107 indSpecies 0 position 0.0578649056320803 0.00116 0 orientation 1 0 0 0 velocity 0 0 0 angularVelocity 0 0 0 force 0 0 0 torque 0 0 0 radius 0.00036 invMass 0
BaseParticle id 108 indSpecies 0 position 0.058592178359353 0.00036 0 orientation 1 0 0 0 velocity 0 0 0 angularVelocity 0 0 0 force 0 0 0 torque 0 0 0 radius 0.00036 invMass 0
BaseParticle id 109 indSpecies 0 position 0.058592178359353 0.00116 0 orientation 1 0 0 0 velocity 0 0 0 angularVelocity 0 0 0 force 0 0 0 torque 0 0 0 radius 0.00036 invMass 0
BaseParticle id 110 indSpecies 0 position 0.0298502304545023 0.000756819433379444 0.022759010835345 orientation 1 0 0 0 velocity 0.0170243284199239 0 -0.096549764259115 angularVelocity 0 0 0 force 7.61323957425462e-07 0 -4.31768271858643e-06 torque 0 0 0 radius 0.00035437067833322 invMass 2235253.63222597
BaseParticle id 111 indSpecies 0 position 0.0292619922105884 0.000403968709021129 0.0213121686031149 orientation 1 -4.60841259936606e-18 1.86564008193011e-16 4.77075509895031e-18 velocity 0.0177599328450421 -0.000794549692379701 -0.0649656335187401 angularVelocity -2.67900751313151e-15 1.09887221500363e-13 2.80891231101943e-15 force 8.69716976805963e-07 0 -4.93241007877253e-06 torque 0 0 0 radius 0.000370448007834658 invMass 1956673.4771415
BaseParticle id 112 indSpecies 0 position 0.0149515843420773 0.00104228746309805 0.0180009164238965 orientation 1 0 0 0 velocity 0.0170243284199239 0 -0.096549764259115 angularVelocity 0 0 0 force 7.5318259575864e-07 0 -4.27151076217845e-06 torque 0 0 0 radius 0.000353102972104118 invMass 2259415.11489898
BaseParticle id 113 indSpecies 0 position 0.02264734752751 0.000665035230083721 0.0195592298165573 orientation 1 0 0 0 velocity 0.0170243284199239 0 -0.096549764259115 angularVelocity 0 0 0 force 8.72838804514599e-07 0 -4.9501148435005e-06 torque 0 0 0 radius 0.000370890716564943 invMass 1949675.16606035
BaseParticle id 114 indSpecies 0 position 0.0193162985199083 0.000708598666924245 0.0186145839820255 orientation 1 0 0 0 velocity 0.0170243284199239 0 -0.096549764259115 angularVelocity 0 0 0 force 1.047417127008e-06 0 -5.94019770995667e-06 torque 0 0 0 radius 0.000394131522929173 invMass 1624712.92215458
BaseParticle id 115 indSpecies 0 position 0.0285872050086481 0.000524883701886337 0.0224826446616317 orientation 1 0 0 0 velocity 0.0170243284199239 0 -0.096549764259115 angularVelocity 0 0 0 force 7.41564622217573e-07 0 -4.20562196005419e-06 torque 0 0 0 radius 0.000351277997762637 invMass 2294813.00772818
BaseParticle id 116 indSpecies 0 position 0.0093277498893202 0.00105472511288798 0.0198102828061292 orientation 1 0 0 0 velocity 0.0170243284199239 0 -0.096549764259115 angularVelocity 0 0 0 force 6.55682660025533e-07 0 -3.71856114924139e-06 torque 0 0 0 radius 0.000337157258598919 invMass 2595389.88124171
BaseParticle id 117 indSpecies 0 position 0.0158440815057087 0.000934437536536882 0.0192909747418187 orientation 1 -5.79975893434988e-18 9.87779898405091e-18 4.92331803065126e-19 velocity 0.0339427827397921 0.00831661576296992 -0.0715759222154601 angularVelocity -4.86839174944725e-14 8.63662801483797e-14 3.30454110211058e-15 force 8.18902665931829e-07 0 -4.64422780133566e-06 torque 0 0 0 radius 0.000363088122864172 invMass 2078088.41261921
BaseParticle id 118 indSpecies 0 position 0.0116246196646308 0.000980543169379122 0.0195280852779042 orientation 1 -6.89316077410056e-18 5.11143841933792e-18 -6.96560513027263e-18 velocity 0.0167798488718702 0.0052770850327008 -0.0924023842968666 angularVelocity -6.50678747893279e-15 5.08995360555412e-15 -6.91202918444558e-15 force 1.08567799778812e-06 0 -6.1571858908147e-06 torque 0 0 0 radius 0.000398873294220424 invMass 1567455.67710034
BaseParticle id 119 indSpecies 0 position 0.0138176953396114 0.000835100294510005 0.02290448861591 orientation 1 0 0 0 velocity 0.0170243284199239 0 -0.096549764259115 angularVelocity 0 0 0 force 6.52823930563808e-07 0 -3.7023484888179e-06 torque 0 0 0 radius 0.000336666550918793 invMass 2606755.14708262
BaseParticle id 120 indSpecies 0 position 0.0309112192303445 0.00082087013103443 0.0214377758636897 orientation 1 8.25399263181821e-17 9.33946333720443e-17 1.49054636002308e-18 velocity 0.0267306852606175 -0.00872531679129891 -0.0858048418811499 angularVelocity 3.75014994920438e-14 4.27518283411757e-14 9.2757791672092e-16 force 9.89393341470921e-07 0 -5.61112846993485e-06 torque 0 0 0 radius 0.000386714932558392 invMass 1719995.54656992
BaseParticle id 121 indSpecies 0 position 0.0261847389730295 0.000784067053097411 0.0238046701972539 orientation 1 0 0 0 velocity 0.0170243284199239 0 -0.096549764259115 angularVelocity 0 0 0 force 6.43038468665967e-07 0 -3.64685237666011e-06 torque 0 0 0 radius 0.000334975928277731 invMass 2646423.54082849
BaseParticle id 122 indSpecies 0 position 0.0152873740208358 0.000452915151247551 0.0198284513586396 orientation 1 0 0 0 velocity 0.0170243284199239 0 -0.096549764259115 angularVelocity 0 0 0 force 6.29507265449472e-07 0 -3.57011310986085e-06 torque 0 0 0 radius 0.00033260966389197 invMass 2703308.18171075
BaseParticle id 123 indSpecies 0 position 0.0163599149687537 0.000777666659778493 0.0181058944259076 orientation 1 0 0 0 velocity 0.0170243284199239 0 -0.096549764259115 angularVelocity 0 0 0 force 8.48051874118527e-07 0 -4.80954117578113e-06 torque 0 0 0 radius 0.000367346089065684 invMass 2006660.43324854
BaseParticle id 124 indSpecies 0 position 0.0296606863041546 0.00110058538197443 0.0245425118669767 orientation 1 0 0 0 velocity 0.0170243284199239 0 -0.096549764259115 angularVelocity 0 0 0 force 8.43772570410711e-07 0 -4.78527203846237e-06 torque 0 0 0 radius 0.000366727165834301 invMass 2016837.47589422
BaseParticle id 125 indSpecies 0 position 0.0241413214356246 0.000947954477169657 0.0226232064249796 orientation 1 0 0 0 velocity 0.0170107144027949 0 -0.0964725553312789 angularVelocity 0 0 0 force 1.02444886779305e-06 0 -5.80993823904267e-06 torque 0 0 0 radius 0.00039122930371088 invMass 1661139.16920224
BaseParticle id 126 indSpecies 0 position 0.0340427694025091 0.000447748466110827 0.0259673942257828 orientation 1 0 0 0 velocity 0.0170107144027949 0 -0.0964725553312789 angularVelocity 0 0 0 force 7.08171375895808e-07 0 -4.01623944929156e-06 torque 0 0 0 radius 0.000345924034392532 invMass 2403023.05212954
BaseParticle id 127 indSpecies 0 position 0.00466795880697363 0.000686049867703452 0.0202214180784388 orientation 1 0 0 0 velocity 0.0170107144027949 0 -0.0964725553312789 angularVelocity 0 0 0 force 7.59066857326292e-07 0 -4.30488206782895e-06 torque 0 0 0 radius 0.000354020130304601 invMass 2241900.20248033
BaseParticle id 128 indSpecies 0 position 0.0103919739548952 0.00074836911725036 0.0179765534218172 orientation 1 0 0 0 velocity 0.0170107144027949 0 -0.0964725553312789 angularVelocity 0 0 0 force 8.41360796486062e-07 0 -4.77159418885048e-06 torque 0 0 0 radius 0.000366377424256525 invMass 2022618.77216442
BaseParticle id 129 indSpecies 0 position 0.0112797491574285 0.000556900887295679 0.01811876206049 orientation 1 0 0 0 velocity 0.0170107144027949 0 -0.0964725553312789 angularVelocity 0 0 0 force 5.73810765568624e-07 0 -3.25424256267026e-06 torque 0 0 0 radius 0.000322495885712564 invMass 2965702.707668
BaseParticle id 130 indSpecies 0 position 0.0184346559152117 0.0010195810679485 0.0228209977474838 orientation 1 0 0 0 velocity 0.0170107144027949 0 -0.0964725553312788 angularVelocity 0 0 0 force 1.06950549024947e-06 0 -6.06546704283314e-06 torque 0 0 0 radius 0.000396882808434886 invMass 1591157.92920238
BaseParticle id 131 indSpecies 0 position 0.00364356838601214 0.00080504764026773 0.0207610064069579 orientation 1 0 0 0 velocity 0.0170107144027949 0 -0.0964725553312789 angularVelocity 0 0 0 force 7.80327594398863e-07 0 -4.4254576994603e-06 torque 0 0 0 radius 0.000357294997836188 invMass 2180817.5865508
BaseParticle id 132 indSpecies 0 position 0.0180668905506753 0.000869059201416563 0.023642065371454 orientation 1 0 0 0 velocity 0.0170107144027949 0 -0.0964725553312789 angularVelocity 0 0 0 force 9.751935074416e-07 0 -5.53059720936278e-06 torque 0 0 0 radius 0.000384855958460964 invMass 1745040.4746853