MercuryDPM 0.14 name HopperSelfTest revision 737d820 repository https://bitbucket.org/mercurydpm/mercurydpm.git
dataFile    fileType ONE_FILE saveCount 51 counter 26 lastSavedTimeStep 1251
fStatFile   fileType ONE_FILE saveCount 51 counter 26 lastSavedTimeStep 1251
eneFile     fileType ONE_FILE saveCount 51 counter 26 lastSavedTimeStep 1251
restartFile fileType ONE_FILE saveCount 51 counter 26 lastSavedTimeStep 1251
statFile    fileType ONE_FILE saveCount 51 counter 0
interactionFile fileType NO_FILE saveCount 0 counter 0
xMin 0 xMax 0.0589594510866257 yMin 0 yMax 0.0016 zMin 0 zMax 0.0280887601170343
timeStep 8e-06 time 0.010008 ntimeSteps 1251 timeMax 0.01
systemDimensions 3 particleDimensions 3 gravity 1.70175214113592 0 -9.65111597951964 backgroundDrag 0 writeVTK 0 NO_FILE NO_FILE 0 0 0 0 0 random  0 1103515245 12345 1073741824 607 273 784607267
Species 1
LinearViscoelasticSlidingFrictionSpecies id 0 density 2400 stiffness 14.4701448167677 dissipation 6.01461669101624e-05 slidingStiffness 0 slidingDissipation 0 slidingFrictionCoefficient 0.5 slidingFrictionCoefficientStatic 0.5
Walls 5
InfiniteWall id 0 indSpecies 0 position 0 0 0 orientation 0.707106781186548 0 0 -0.707106781186548 velocity 0 0 0 angularVelocity 0 0 0 force 0 0 0 torque 0 0 0
InfiniteWall id 1 indSpecies 0 position 0 0.0016 0 orientation 0.707106781186548 0 0 0.707106781186548 velocity 0 0 0 angularVelocity 0 0 0 force 0 0 0 torque 0 0 0
InfiniteWall id 2 indSpecies 0 position 0 0 -0.000727272727272727 orientation 0.707106781186548 0 0.707106781186548 0 velocity 0 0 0 angularVelocity 0 0 0 force 0 0 0 torque 0 0 0
IntersectionOfWalls id 3 indSpecies 0 position 0 0 0 orientation 1 0 0 0 velocity 0 0 0 angularVelocity 0 0 0 force 0 0 0 torque 0 0 0 numIntersectionOfWalls 3 position 0 0 0.0211428330103571 orientation 0.17364817766693 0 0.984807753012208 0 position 0.0295442325903662 0 -0.0600292789067895 orientation 0.996194698091745 0 -0.0871557427476582 0 position 0.0189594510866257 0 0 orientation 0.933944001109067 0 -0.357419365441196 0
IntersectionOfWalls id 4 indSpecies 0 position 0 0 0 orientation 1 0 0 0 velocity 0 0 0 angularVelocity 0 0 0 force 0 0 0 torque 0 0 0 numIntersectionOfWalls 3 position 0.0393923101204883 0 0.0280887601170343 orientation 1 0 -0 0 position 0.0393923101204883 0 -0.0582927971301202 orientation 0.0871557427476577 0 0.996194698091746 0 position 0.0273772354288139 0 0.00984807753012208 orientation 0.287132810912366 0 -0.957890781298976 0
Boundaries 1
HopperInsertionBoundary id 0 maxFailed 1 massInserted 0.000143965464174307 volumeInserted 5.99856100726278e-08 numberOfParticlesInserted 318 isActivated 1 psdCount 1 psd 50 0.00032 0 0.000321632653061225 0.0204081632653061 0.000323265306122449 0.0408163265306122 0.000324897959183674 0.0612244897959184 0.000326530612244898 0.0816326530612245 0.000328163265306123 0.102040816326531 0.000329795918367347 0.122448979591837 0.000331428571428572 0.142857142857143 0.000333061224489796 0.163265306122449 0.000334693877551021 0.183673469387755 0.000336326530612245 0.204081632653061 0.00033795918367347 0.224489795918367 0.000339591836734694 0.244897959183673 0.000341224489795919 0.26530612244898 0.000342857142857143 0.285714285714286 0.000344489795918368 0.306122448979592 0.000346122448979592 0.326530612244898 0.000347755102040817 0.346938775510204 0.000349387755102041 0.36734693877551 0.000351020408163266 0.387755102040816 0.00035265306122449 0.408163265306123 0.000354285714285715 0.428571428571429 0.000355918367346939 0.448979591836735 0.000357551020408164 0.469387755102041 0.000359183673469388 0.489795918367347 0.000360816326530613 0.510204081632653 0.000362448979591837 0.530612244897959 0.000364081632653062 0.551020408163266 0.000365714285714286 0.571428571428572 0.000367346938775511 0.591836734693878 0.000368979591836735 0.612244897959184 0.00037061224489796 0.63265306122449 0.000372244897959184 0.653061224489796 0.000373877551020409 0.673469387755102 0.000375510204081633 0.693877551020409 0.000377142857142858 0.714285714285715 0.000378775510204082 0.734693877551021 0.000380408163265307 0.755102040816327 0.000382040816326531 0.775510204081633 0.000383673469387756 0.795918367346939 0.00038530612244898 0.816326530612245 0.000386938775510205 0.836734693877552 0.000388571428571429 0.857142857142858 0.000390204081632654 0.877551020408164 0.000391836734693878 0.89795918367347 0.000393469387755103 0.918367346938776 0.000395102040816328 0.938775510204082 0.000396734693877552 0.959183673469388 0.000398367346938777 0.979591836734695 0.0004 1 initialVolume 0 samplingInterval 0 variableCumulativeVolumeFlowRate 0 particleToCopy 1 BaseParticle id 0 indSpecies 0 position 0 0 0 orientation 1 0 0 0 velocity 0 0 0 angularVelocity 0 0 0 force 0 0 0 torque 0 0 0 radius 1 invMass 1 yMin 0 yMax 0.0016 chuteAngle 0.174532925199433 fixedParticleRadius 0.00036 isHopperCentred_ 0 hopperDim 1 hopperAngle 1.0471975511966 hopperLength 0.04 hopperExitLength 0.01 hopperHeight 0.0241139 lift 0 fillPercent 50
Particles 428
BaseParticle id 0 indSpecies 0 position 0.0193194510866257 0.00036 0 orientation 1 0 0 0 velocity 0 0 0 angularVelocity 0 0 0 force 0 0 0 torque 0 0 0 radius 0.00036 invMass 0
BaseParticle id 1 indSpecies 0 position 0.0193194510866257 0.00116 0 orientation 1 0 0 0 velocity 0 0 0 angularVelocity 0 0 0 force 0 0 0 torque 0 0 0 radius 0.00036 invMass 0
BaseParticle id 2 indSpecies 0 position 0.0200467238138984 0.00036 0 orientation 1 0 0 0 velocity 0 0 0 angularVelocity 0 0 0 force 0 0 0 torque 0 0 0 radius 0.00036 invMass 0
BaseParticle id 3 indSpecies 0 position 0.0200467238138984 0.00116 0 orientation 1 0 0 0 velocity 0 0 0 angularVelocity 0 0 0 force 0 0 0 torque 0 0 0 radius 0.00036 invMass 0
BaseParticle id 4 indSpecies 0 position 0.0207739965411712 0.00036 0 orientation 1 0 0 0 velocity 0 0 0 angularVelocity 0 0 0 force 0 0 0 torque 0 0 0 radius 0.00036 invMass 0
BaseParticle id 5 indSpecies 0 position 0.0207739965411712 0.00116 0 orientation 1 0 0 0 velocity 0 0 0 angularVelocity 0 0 0 force 0 0 0 torque 0 0 0 radius 0.00036 invMass 0
BaseParticle id 6 indSpecies 0 position 0.0215012692684439 0.00036 0 orientation 1 0 0 0 velocity 0 0 0 angularVelocity 0 0 0 force 0 0 0 torque 0 0 0 radius 0.00036 invMass 0
BaseParticle id 7 indSpecies 0 position 0.0215012692684439 0.00116 0 orientation 1 0 0 0 velocity 0 0 0 angularVelocity 0 0 0 force 0 0 0 torque 0 0 0 radius 0.00036 invMass 0
BaseParticle id 8 indSpecies 0 position 0.0222285419957166 0.00036 0 orientation 1 0 0 0 velocity 0 0 0 angularVelocity 0 0 0 force 0 0 0 torque 0 0 0 radius 0.00036 invMass 0
BaseParticle id 9 indSpecies 0 position 0.0222285419957166 0.00116 0 orientation 1 0 0 0 velocity 0 0 0 angularVelocity 0 0 0 force 0 0 0 torque 0 0 0 radius 0.00036 invMass 0
BaseParticle id 10 indSpecies 0 position 0.0229558147229893 0.00036 0 orientation 1 0 0 0 velocity 0 0 0 angularVelocity 0 0 0 force 0 0 0 torque 0 0 0 radius 0.00036 invMass 0
BaseParticle id 11 indSpecies 0 position 0.0229558147229893 0.00116 0 orientation 1 0 0 0 velocity 0 0 0 angularVelocity 0 0 0 force 0 0 0 torque 0 0 0 radius 0.00036 invMass 0
BaseParticle id 12 indSpecies 0 position 0.0236830874502621 0.00036 0 orientation 1 0 0 0 velocity 0 0 0 angularVelocity 0 0 0 force 0 0 0 torque 0 0 0 radius 0.00036 invMass 0
BaseParticle id 13 indSpecies 0 position 0.0236830874502621 0.00116 0 orientation 1 0 0 0 velocity 0 0 0 angularVelocity 0 0 0 force 0 0 0 torque 0 0 0 radius 0.00036 invMass 0
BaseParticle id 14 indSpecies 0 position 0.0244103601775348 0.00036 0 orientation 1 0 0 0 velocity 0 0 0 angularVelocity 0 0 0 force 0 0 0 torque 0 0 0 radius 0.00036 invMass 0
BaseParticle id 15 indSpecies 0 position 0.0244103601775348 0.00116 0 orientation 1 0 0 0 velocity 0 0 0 angularVelocity 0 0 0 force 0 0 0 torque 0 0 0 radius 0.00036 invMass 0
BaseParticle id 16 indSpecies 0 position 0.0251376329048075 0.00036 0 orientation 1 0 0 0 velocity 0 0 0 angularVelocity 0 0 0 force 0 0 0 torque 0 0 0 radius 0.00036 invMass 0
BaseParticle id 17 indSpecies 0 position 0.0251376329048075 0.00116 0 orientation 1 0 0 0 velocity 0 0 0 angularVelocity 0 0 0 force 0 0 0 torque 0 0 0 radius 0.00036 invMass 0
BaseParticle id 18 indSpecies 0 position 0.0258649056320803 0.00036 0 orientation 1 0 0 0 velocity 0 0 0 angularVelocity 0 0 0 force 0 0 0 torque 0 0 0 radius 0.00036 invMass 0
BaseParticle id 19 indSpecies 0 position 0.0258649056320803 0.00116 0 orientation 1 0 0 0 velocity 0 0 0 angularVelocity 0 0 0 force 0 0 0 torque 0 0 0 radius 0.00036 invMass 0
BaseParticle id 20 indSpecies 0 position 0.026592178359353 0.00036 0 orientation 1 0 0 0 velocity 0 0 0 angularVelocity 0 0 0 force 0 0 0 torque 0 0 0 radius 0.00036 invMass 0
BaseParticle id 21 indSpecies 0 position 0.026592178359353 0.00116 0 orientation 1 0 0 0 velocity 0 0 0 angularVelocity 0 0 0 force 0 0 0 torque 0 0 0 radius 0.00036 invMass 0
BaseParticle id 22 indSpecies 0 position 0.0273194510866257 0.00036 0 orientation 1 0 0 0 velocity 0 0 0 angularVelocity 0 0 0 force 0 0 0 torque 0 0 0 radius 0.00036 invMass 0
BaseParticle id 23 indSpecies 0 position 0.0273194510866257 0.00116 0 orientation 1 0 0 0 velocity 0 0 0 angularVelocity 0 0 0 force 0 0 0 torque 0 0 0 radius 0.00036 invMass 0
BaseParticle id 24 indSpecies 0 position 0.0280467238138984 0.00036 0 orientation 1 0 0 0 velocity 0 0 0 angularVelocity 0 0 0 force 0 0 0 torque 0 0 0 radius 0.00036 invMass 0
BaseParticle id 25 indSpecies 0 position 0.0280467238138984 0.00116 0 orientation 1 0 0 0 velocity 0 0 0 angularVelocity 0 0 0 force 0 0 0 torque 0 0 0 radius 0.00036 invMass 0
BaseParticle id 26 indSpecies 0 position 0.0287739965411712 0.00036 0 orientation 1 0 0 0 velocity 0 0 0 angularVelocity 0 0 0 force 0 0 0 torque 0 0 0 radius 0.00036 invMass 0
BaseParticle id 27 indSpecies 0 position 0.0287739965411712 0.00116 0 orientation 1 0 0 0 velocity 0 0 0 angularVelocity 0 0 0 force 0 0 0 torque 0 0 0 radius 0.00036 invMass 0
BaseParticle id 28 indSpecies 0 position 0.0295012692684439 0.00036 0 orientation 1 0 0 0 velocity 0 0 0 angularVelocity 0 0 0 force 0 0 0 torque 0 0 0 radius 0.00036 invMass 0
BaseParticle id 29 indSpecies 0 position 0.0295012692684439 0.00116 0 orientation 1 0 0 0 velocity 0 0 0 angularVelocity 0 0 0 force 0 0 0 torque 0 0 0 radius 0.00036 invMass 0
BaseParticle id 30 indSpecies 0 position 0.0302285419957166 0.00036 0 orientation 1 0 0 0 velocity 0 0 0 angularVelocity 0 0 0 force 0 0 0 torque 0 0 0 radius 0.00036 invMass 0
BaseParticle id 31 indSpecies 0 position 0.0302285419957166 0.00116 0 orientation 1 0 0 0 velocity 0 0 0 angularVelocity 0 0 0 force 0 0 0 torque 0 0 0 radius 0.00036 invMass 0
BaseParticle id 32 indSpecies 0 position 0.0309558147229893 0.00036 0 orientation 1 0 0 0 velocity 0 0 0 angularVelocity 0 0 0 force 0 0 0 torque 0 0 0 radius 0.00036 invMass 0
BaseParticle id 33 indSpecies 0 position 0.0309558147229893 0.00116 0 orientation 1 0 0 0 velocity 0 0 0 angularVelocity 0 0 0 force 0 0 0 torque 0 0 0 radius 0.00036 invMass 0
BaseParticle id 34 indSpecies 0 position 0.0316830874502621 0.00036 0 orientation 1 0 0 0 velocity 0 0 0 angularVelocity 0 0 0 force 0 0 0 torque 0 0 0 radius 0.00036 invMass 0
BaseParticle id 35 indSpecies 0 position 0.0316830874502621 0.00116 0 orientation 1 0 0 0 velocity 0 0 0 angularVelocity 0 0 0 force 0 0 0 torque 0 0 0 radius 0.00036 invMass 0
BaseParticle id 36 indSpecies 0 position 0.0324103601775348 0.00036 0 orientation 1 0 0 0 velocity 0 0 0 angularVelocity 0 0 0 force 0 0 0 torque 0 0 0 radius 0.00036 invMass 0
BaseParticle id 37 indSpecies 0 position 0.0324103601775348 0.00116 0 orientation 1 0 0 0 velocity 0 0 0 angularVelocity 0 0 0 force 0 0 0 torque 0 0 0 radius 0.00036 invMass 0
BaseParticle id 38 indSpecies 0 position 0.0331376329048075 0.00036 0 orientation 1 0 0 0 velocity 0 0 0 angularVelocity 0 0 0 force 0 0 0 torque 0 0 0 radius 0.00036 invMass 0
BaseParticle id 39 indSpecies 0 position 0.0331376329048075 0.00116 0 orientation 1 0 0 0 velocity 0 0 0 angularVelocity 0 0 0 force 0 0 0 torque 0 0 0 radius 0.00036 invMass 0
BaseParticle id 40 indSpecies 0 position 0.0338649056320803 0.00036 0 orientation 1 0 0 0 velocity 0 0 0 angularVelocity 0 0 0 force 0 0 0 torque 0 0 0 radius 0.00036 invMass 0
BaseParticle id 41 indSpecies 0 position 0.0338649056320803 0.00116 0 orientation 1 0 0 0 velocity 0 0 0 angularVelocity 0 0 0 force 0 0 0 torque 0 0 0 radius 0.00036 invMass 0
BaseParticle id 42 indSpecies 0 position 0.034592178359353 0.00036 0 orientation 1 0 0 0 velocity 0 0 0 angularVelocity 0 0 0 force 0 0 0 torque 0 0 0 radius 0.00036 invMass 0
BaseParticle id 43 indSpecies 0 position 0.034592178359353 0.00116 0 orientation 1 0 0 0 velocity 0 0 0 angularVelocity 0 0 0 force 0 0 0 torque 0 0 0 radius 0.00036 invMass 0
BaseParticle id 44 indSpecies 0 position 0.0353194510866257 0.00036 0 orientation 1 0 0 0 velocity 0 0 0 angularVelocity 0 0 0 force 0 0 0 torque 0 0 0 radius 0.00036 invMass 0
BaseParticle id 45 indSpecies 0 position 0.0353194510866257 0.00116 0 orientation 1 0 0 0 velocity 0 0 0 angularVelocity 0 0 0 force 0 0 0 torque 0 0 0 radius 0.00036 invMass 0
BaseParticle id 46 indSpecies 0 position 0.0360467238138984 0.00036 0 orientation 1 0 0 0 velocity 0 0 0 angularVelocity 0 0 0 force 0 0 0 torque 0 0 0 radius 0.00036 invMass 0
BaseParticle id 47 indSpecies 0 position 0.0360467238138984 0.00116 0 orientation 1 0 0 0 velocity 0 0 0 angularVelocity 0 0 0 force 0 0 0 torque 0 0 0 radius 0.00036 invMass 0
BaseParticle id 48 indSpecies 0 position 0.0367739965411712 0.00036 0 orientation 1 0 0 0 velocity 0 0 0 angularVelocity 0 0 0 force 0 0 0 torque 0 0 0 radius 0.00036 invMass 0
BaseParticle id 49 indSpecies 0 position 0.0367739965411712 0.00116 0 orientation 1 0 0 0 velocity 0 0 0 angularVelocity 0 0 0 force 0 0 0 torque 0 0 0 radius 0.00036 invMass 0
BaseParticle id 50 indSpecies 0 position 0.0375012692684439 0.00036 0 orientation 1 0 0 0 velocity 0 0 0 angularVelocity 0 0 0 force 0 0 0 torque 0 0 0 radius 0.00036 invMass 0
BaseParticle id 51 indSpecies 0 position 0.0375012692684439 0.00116 0 orientation 1 0 0 0 velocity 0 0 0 angularVelocity 0 0 0 force 0 0 0 torque 0 0 0 radius 0.00036 invMass 0
BaseParticle id 52 indSpecies 0 position 0.0382285419957166 0.00036 0 orientation 1 0 0 0 velocity 0 0 0 angularVelocity 0 0 0 force 0 0 0 torque 0 0 0 radius 0.00036 invMass 0
BaseParticle id 53 indSpecies 0 position 0.0382285419957166 0.00116 0 orientation 1 0 0 0 velocity 0 0 0 angularVelocity 0 0 0 force 0 0 0 torque 0 0 0 radius 0.00036 invMass 0
BaseParticle id 54 indSpecies 0 position 0.0389558147229894 0.00036 0 orientation 1 0 0 0 velocity 0 0 0 angularVelocity 0 0 0 force 0 0 0 torque 0 0 0 radius 0.00036 invMass 0
BaseParticle id 55 indSpecies 0 position 0.0389558147229894 0.00116 0 orientation 1 0 0 0 velocity 0 0 0 angularVelocity 0 0 0 force 0 0 0 torque 0 0 0 radius 0.00036 invMass 0
BaseParticle id 56 indSpecies 0 position 0.0396830874502621 0.00036 0 orientation 1 0 0 0 velocity 0 0 0 angularVelocity 0 0 0 force 0 0 0 torque 0 0 0 radius 0.00036 invMass 0
BaseParticle id 57 indSpecies 0 position 0.0396830874502621 0.00116 0 orientation 1 0 0 0 velocity 0 0 0 angularVelocity 0 0 0 force 0 0 0 torque 0 0 0 radius 0.00036 invMass 0
BaseParticle id 58 indSpecies 0 position 0.0404103601775348 0.00036 0 orientation 1 0 0 0 velocity 0 0 0 angularVelocity 0 0 0 force 0 0 0 torque 0 0 0 radius 0.00036 invMass 0
BaseParticle id 59 indSpecies 0 position 0.0404103601775348 0.00116 0 orientation 1 0 0 0 velocity 0 0 0 angularVelocity 0 0 0 force 0 0 0 torque 0 0 0 radius 0.00036 invMass 0
BaseParticle id 60 indSpecies 0 position 0.0411376329048075 0.00036 0 orientation 1 0 0 0 velocity 0 0 0 angularVelocity 0 0 0 force 0 0 0 torque 0 0 0 radius 0.00036 invMass 0
BaseParticle id 61 indSpecies 0 position 0.0411376329048075 0.00116 0 orientation 1 0 0 0 velocity 0 0 0 angularVelocity 0 0 0 force 0 0 0 torque 0 0 0 radius 0.00036 invMass 0
BaseParticle id 62 indSpecies 0 position 0.0418649056320803 0.00036 0 orientation 1 0 0 0 velocity 0 0 0 angularVelocity 0 0 0 force 0 0 0 torque 0 0 0 radius 0.00036 invMass 0
BaseParticle id 63 indSpecies 0 position 0.0418649056320803 0.00116 0 orientation 1 0 0 0 velocity 0 0 0 angularVelocity 0 0 0 force 0 0 0 torque 0 0 0 radius 0.00036 invMass 0
BaseParticle id 64 indSpecies 0 position 0.042592178359353 0.00036 0 orientation 1 0 0 0 velocity 0 0 0 angularVelocity 0 0 0 force 0 0 0 torque 0 0 0 radius 0.00036 invMass 0
BaseParticle id 65 indSpecies 0 position 0.042592178359353 0.00116 0 orientation 1 0 0 0 velocity 0 0 0 angularVelocity 0 0 0 force 0 0 0 torque 0 0 0 radius 0.00036 invMass 0
BaseParticle id 66 indSpecies 0 position 0.0433194510866257 0.00036 0 orientation 1 0 0 0 velocity 0 0 0 angularVelocity 0 0 0 force 0 0 0 torque 0 0 0 radius 0.00036 invMass 0
BaseParticle id 67 indSpecies 0 position 0.0433194510866257 0.00116 0 orientation 1 0 0 0 velocity 0 0 0 angularVelocity 0 0 0 force 0 0 0 torque 0 0 0 radius 0.00036 invMass 0
BaseParticle id 68 indSpecies 0 position 0.0440467238138984 0.00036 0 orientation 1 0 0 0 velocity 0 0 0 angularVelocity 0 0 0 force 0 0 0 torque 0 0 0 radius 0.00036 invMass 0
BaseParticle id 69 indSpecies 0 position 0.0440467238138984 0.00116 0 orientation 1 0 0 0 velocity 0 0 0 angularVelocity 0 0 0 force 0 0 0 torque 0 0 0 radius 0.00036 invMass 0
BaseParticle id 70 indSpecies 0 position 0.0447739965411712 0.00036 0 orientation 1 0 0 0 velocity 0 0 0 angularVelocity 0 0 0 force 0 0 0 torque 0 0 0 radius 0.00036 invMass 0
BaseParticle id 71 indSpecies 0 position 0.0447739965411712 0.00116 0 orientation 1 0 0 0 velocity 0 0 0 angularVelocity 0 0 0 force 0 0 0 torque 0 0 0 radius 0.00036 invMass 0
BaseParticle id 72 indSpecies 0 position 0.0455012692684439 0.00036 0 orientation 1 0 0 0 velocity 0 0 0 angularVelocity 0 0 0 force 0 0 0 torque 0 0 0 radius 0.00036 invMass 0
BaseParticle id 73 indSpecies 0 position 0.0455012692684439 0.00116 0 orientation 1 0 0 0 velocity 0 0 0 angularVelocity 0 0 0 force 0 0 0 torque 0 0 0 radius 0.00036 invMass 0
BaseParticle id 74 indSpecies 0 position 0.0462285419957166 0.00036 0 orientation 1 0 0 0 velocity 0 0 0 angularVelocity 0 0 0 force 0 0 0 torque 0 0 0 radius 0.00036 invMass 0
BaseParticle id 75 indSpecies 0 position 0.0462285419957166 0.00116 0 orientation 1 0 0 0 velocity 0 0 0 angularVelocity 0 0 0 force 0 0 0 torque 0 0 0 radius 0.00036 invMass 0
BaseParticle id 76 indSpecies 0 position 0.0469558147229893 0.00036 0 orientation 1 0 0 0 velocity 0 0 0 angularVelocity 0 0 0 force 0 0 0 torque 0 0 0 radius 0.00036 invMass 0
BaseParticle id 77 indSpecies 0 position 0.0469558147229893 0.00116 0 orientation 1 0 0 0 velocity 0 0 0 angularVelocity 0 0 0 force 0 0 0 torque 0 0 0 radius 0.00036 invMass 0
BaseParticle id 78 indSpecies 0 position 0.0476830874502621 0.00036 0 orientation 1 0 0 0 velocity 0 0 0 angularVelocity 0 0 0 force 0 0 0 torque 0 0 0 radius 0.00036 invMass 0
BaseParticle id 79 indSpecies 0 position 0.0476830874502621 0.00116 0 orientation 1 0 0 0 velocity 0 0 0 angularVelocity 0 0 0 force 0 0 0 torque 0 0 0 radius 0.00036 invMass 0
BaseParticle id 80 indSpecies 0 position 0.0484103601775348 0.00036 0 orientation 1 0 0 0 velocity 0 0 0 angularVelocity 0 0 0 force 0 0 0 torque 0 0 0 radius 0.00036 invMass 0
BaseParticle id 81 indSpecies 0 position 0.0484103601775348 0.00116 0 orientation 1 0 0 0 velocity 0 0 0 angularVelocity 0 0 0 force 0 0 0 torque 0 0 0 radius 0.00036 invMass 0
BaseParticle id 82 indSpecies 0 position 0.0491376329048075 0.00036 0 orientation 1 0 0 0 velocity 0 0 0 angularVelocity 0 0 0 force 0 0 0 torque 0 0 0 radius 0.00036 invMass 0
BaseParticle id 83 indSpecies 0 position 0.0491376329048075 0.00116 0 orientation 1 0 0 0 velocity 0 0 0 angularVelocity 0 0 0 force 0 0 0 torque 0 0 0 radius 0.00036 invMass 0
BaseParticle id 84 indSpecies 0 position 0.0498649056320803 0.00036 0 orientation 1 0 0 0 velocity 0 0 0 angularVelocity 0 0 0 force 0 0 0 torque 0 0 0 radius 0.00036 invMass 0
BaseParticle id 85 indSpecies 0 position 0.0498649056320803 0.00116 0 orientation 1 0 0 0 velocity 0 0 0 angularVelocity 0 0 0 force 0 0 0 torque 0 0 0 radius 0.00036 invMass 0
BaseParticle id 86 indSpecies 0 position 0.050592178359353 0.00036 0 orientation 1 0 0 0 velocity 0 0 0 angularVelocity 0 0 0 force 0 0 0 torque 0 0 0 radius 0.00036 invMass 0
BaseParticle id 87 indSpecies 0 position 0.050592178359353 0.00116 0 orientation 1 0 0 0 velocity 0 0 0 angularVelocity 0 0 0 force 0 0 0 torque 0 0 0 radius 0.00036 invMass 0
BaseParticle id 88 indSpecies 0 position 0.0513194510866257 0.00036 0 orientation 1 0 0 0 velocity 0 0 0 angularVelocity 0 0 0 force 0 0 0 torque 0 0 0 radius 0.00036 invMass 0
BaseParticle id 89 indSpecies 0 position 0.0513194510866257 0.00116 0 orientation 1 0 0 0 velocity 0 0 0 angularVelocity 0 0 0 force 0 0 0 torque 0 0 0 radius 0.00036 invMass 0
BaseParticle id 90 indSpecies 0 position 0.0520467238138984 0.00036 0 orientation 1 0 0 0 velocity 0 0 0 angularVelocity 0 0 0 force 0 0 0 torque 0 0 0 radius 0.00036 invMass 0
BaseParticle id 91 indSpecies 0 position 0.0520467238138984 0.00116 0 orientation 1 0 0 0 velocity 0 0 0 angularVelocity 0 0 0 force 0 0 0 torque 0 0 0 radius 0.00036 invMass 0
BaseParticle id 92 indSpecies 0 position 0.0527739965411712 0.00036 0 orientation 1 0 0 0 velocity 0 0 0 angularVelocity 0 0 0 force 0 0 0 torque 0 0 0 radius 0.00036 invMass 0
BaseParticle id 93 indSpecies 0 position 0.0527739965411712 0.00116 0 orientation 1 0 0 0 velocity 0 0 0 angularVelocity 0 0 0 force 0 0 0 torque 0 0 0 radius 0.00036 invMass 0
BaseParticle id 94 indSpecies 0 position 0.0535012692684439 0.00036 0 orientation 1 0 0 0 velocity 0 0 0 angularVelocity 0 0 0 force 0 0 0 torque 0 0 0 radius 0.00036 invMass 0
BaseParticle id 95 indSpecies 0 position 0.0535012692684439 0.00116 0 orientation 1 0 0 0 velocity 0 0 0 angularVelocity 0 0 0 force 0 0 0 torque 0 0 0 radius 0.00036 invMass 0
BaseParticle id 96 indSpecies 0 position 0.0542285419957166 0.00036 0 orientation 1 0 0 0 velocity 0 0 0 angularVelocity 0 0 0 force 0 0 0 torque 0 0 0 radius 0.00036 invMass 0
BaseParticle id 97 indSpecies 0 position 0.0542285419957166 0.00116 0 orientation 1 0 0 0 velocity 0 0 0 angularVelocity 0 0 0 force 0 0 0 torque 0 0 0 radius 0.00036 invMass 0
BaseParticle id 98 indSpecies 0 position 0.0549558147229894 0.00036 0 orientation 1 0 0 0 velocity 0 0 0 angularVelocity 0 0 0 force 0 0 0 torque 0 0 0 radius 0.00036 invMass 0
BaseParticle id 99 indSpecies 0 position 0.0549558147229894 0.00116 0 orientation 1 0 0 0 velocity 0 0 0 angularVelocity 0 0 0 force 0 0 0 torque 0 0 0 radius 0.00036 invMass 0
BaseParticle id 100 indSpecies 0 position 0.0556830874502621 0.00036 0 orientation 1 0 0 0 velocity 0 0 0 angularVelocity 0 0 0 force 0 0 0 torque 0 0 0 radius 0.00036 invMass 0
BaseParticle id 101 indSpecies 0 position 0.0556830874502621 0.00116 0 orientation 1 0 0 0 velocity 0 0 0 angularVelocity 0 0 0 force 0 0 0 torque 0 0 0 radius 0.00036 invMass 0
BaseParticle id 102 indSpecies 0 position 0.0564103601775348 0.00036 0 orientation 1 0 0 0 velocity 0 0 0 angularVelocity 0 0 0 force 0 0 0 torque 0 0 0 radius 0.00036 invMass 0
BaseParticle id 103 indSpecies 0 position 0.0564103601775348 0.00116 0 orientation 1 0 0 0 velocity 0 0 0 angularVelocity 0 0 0 force 0 0 0 torque 0 0 0 radius 0.00036 invMass 0
BaseParticle id 104 indSpecies 0 position 0.0571376329048075 0.00036 0 orientation 1 0 0 0 velocity 0 0 0 angularVelocity 0 0 0 force 0 0 0 torque 0 0 0 radius 0.00036 invMass 0
BaseParticle id 105 indSpecies 0 position 0.0571376329048075 0.00116 0 orientation 1 0 0 0 velocity 0 0 0 angularVelocity 0 0 0 force 0 0 0 torque 0 0 0 radius 0.00036 invMass 0
BaseParticle id 106 indSpecies 0 position 0.0578649056320803 0.00036 0 orientation 1 0 0 0 velocity 0 0 0 angularVelocity 0 0 0 force 0 0 0 torque 0 0 0 radius 0.00036 invMass 0
BaseParticle id 107 indSpecies 0 position 0.0578649056320803 0.00116 0 orientation 1 0 0 0 velocity 0 0 0 angularVelocity 0 0 0 force 0 0 0 torque 0 0 0 radius 0.00036 invMass 0
BaseParticle id 108 indSpecies 0 position 0.058592178359353 0.00036 0 orientation 1 0 0 0 velocity 0 0 0 angularVelocity 0 0 0 force 0 0 0 torque 0 0 0 radius 0.00036 invMass 0
BaseParticle id 109 indSpecies 0 position 0.058592178359353 0.00116 0 orientation 1 0 0 0 velocity 0 0 0 angularVelocity 0 0 0 force 0 0 0 torque 0 0 0 radius 0.00036 invMass 0
BaseParticle id 110 indSpecies 0 position 0.0298482274569841 0.000756961168426444 0.0227586576528402 orientation 1 0 0 0 velocity 0.0170243284199239 0 -0.096549764259115 angularVelocity 0 0 0 force 7.70790405044445e-07 0 -4.37136961086433e-06 torque 0 0 0 radius 0.000355833403299433 invMass 2207801.40748871
BaseParticle id 111 indSpecies 0 position 0.0292808751373573 0.000393779294555466 0.0212111372725054 orientation 1 0 0 0 velocity 0.0170243284199239 0 -0.096549764259115 angularVelocity 0 0 0 force 7.74764814022316e-07 0 -4.39390960424426e-06 torque 0 0 0 radius 0.000356443947007277 invMass 2196475.76959645
BaseParticle id 112 indSpecies 0 position 0.0149563126833546 0.00103998746070458 0.0180017501580377 orientation 1 0 0 0 velocity 0.0170243284199239 0 -0.096549764259115 angularVelocity 0 0 0 force 7.80657255666815e-07 0 -4.42732730141586e-06 torque 0 0 0 radius 0.000357345305655572 invMass 2179896.65603291
BaseParticle id 113 indSpecies 0 position 0.0226410091000157 0.000670322296694466 0.0195581121807748 orientation 1 0 0 0 velocity 0.0170243284199239 0 -0.096549764259115 angularVelocity 0 0 0 force 9.96977277408177e-07 0 -5.65413910793696e-06 torque 0 0 0 radius 0.000387700506010126 invMass 1706911.66157761
BaseParticle id 114 indSpecies 0 position 0.0193092857380511 0.000702971453494823 0.0186133474393742 orientation 1 0 0 0 velocity 0.0170243284199239 0 -0.096549764259115 angularVelocity 0 0 0 force 8.60563643659426e-07 0 -4.88049894690968e-06 torque 0 0 0 radius 0.000369143828900037 invMass 1977485.51623614
BaseParticle id 115 indSpecies 0 position 0.0286036047446545 0.000518525886521777 0.0225037379626399 orientation 1 1.98125185740865e-18 3.70064938475861e-17 -4.80969470977338e-18 velocity 0.0161621596895602 0.00324606675596944 -0.0719744960312011 angularVelocity 6.2501877733494e-15 9.77480868542249e-14 -1.26682005555171e-14 force 6.54838163970211e-07 0 -3.7137717741161e-06 torque 0 0 0 radius 0.000337012447539306 invMass 2598736.96245555
BaseParticle id 116 indSpecies 0 position 0.00930993709443957 0.00106152792633783 0.01980714192979 orientation 1 0 0 0 velocity 0.0170243284199239 0 -0.096549764259115 angularVelocity 0 0 0 force 5.86178105408995e-07 0 -3.32438123226399e-06 torque 0 0 0 radius 0.000324796353972479 invMass 2903131.53192331
BaseParticle id 117 indSpecies 0 position 0.015861519856125 0.000923991431437774 0.0192888902414801 orientation 1 0 0 0 velocity 0.0170243284199239 0 -0.096549764259115 angularVelocity 0 0 0 force 1.0235988800502e-06 0 -5.80511771900974e-06 torque 0 0 0 radius 0.000391121072467248 invMass 1662518.56494066
BaseParticle id 118 indSpecies 0 position 0.0115682921528271 0.000988550392183717 0.0195093966700652 orientation 1 0 0 0 velocity 0.0170243284199239 0 -0.096549764259115 angularVelocity 0 0 0 force 7.57881809441232e-07 0 -4.29816132730303e-06 torque 0 0 0 radius 0.000353835803406086 invMass 2245405.70829979
BaseParticle id 119 indSpecies 0 position 0.0137186516528881 0.000866578856642911 0.02300020129665 orientation 1 2.91327191512748e-17 9.06008348490921e-17 -2.54215987353945e-18 velocity 0.00203617169766517 0.0049632630995435 -0.080912681965842 angularVelocity 9.35104919917132e-15 2.88229091225842e-14 -7.35243071031185e-16 force 5.96812166061149e-07 0 -3.38468998710926e-06 torque 0 0 0 radius 0.000326748676384995 invMass 2851403.2352376
BaseParticle id 120 indSpecies 0 position 0.0308793301116393 0.00086020550059732 0.0213923062796059 orientation 1 0 0 0 velocity 0.0170243284199239 0 -0.096549764259115 angularVelocity 0 0 0 force 9.44407920671359e-07 0 -5.35600347080644e-06 torque 0 0 0 radius 0.000380762779149753 invMass 1801924.89271604
BaseParticle id 121 indSpecies 0 position 0.0261801284305491 0.000772861363295057 0.0238175492939569 orientation 1 1.77160139025799e-17 -1.57235853944326e-17 -9.111872614742e-18 velocity 0.0152691541736716 -0.00620327930630136 -0.089325039352356 angularVelocity 2.02759681510834e-14 -1.69519175815506e-14 -9.53758206843902e-15 force 6.54304197418099e-07 0 -3.71074349931682e-06 torque 0 0 0 radius 0.00033692082067174 invMass 2600857.74759061
BaseParticle id 122 indSpecies 0 position 0.0153174250581839 0.000482141549120512 0.0198337501673224 orientation 1 0 0 0 velocity 0.0170243284199239 0 -0.096549764259115 angularVelocity 0 0 0 force 8.80455444471522e-07 0 -4.99331095521477e-06 torque 0 0 0 radius 0.0003719664262922 invMass 1932808.92499605
BaseParticle id 123 indSpecies 0 position 0.0163279392157284 0.000775766327169749 0.0181002562379208 orientation 1 0 0 0 velocity 0.0170243284199239 0 -0.096549764259115 angularVelocity 0 0 0 force 6.17782854686024e-07 0 -3.50362067225238e-06 torque 0 0 0 radius 0.000330531786901533 invMass 2754612.12338241
BaseParticle id 124 indSpecies 0 position 0.0296832387025685 0.00111460240060755 0.0245486878271032 orientation 1 3.67959099064695e-19 3.41880434468778e-18 1.5408293712129e-19 velocity 0.0121159381209746 -0.000464906689987176 -0.074474516866829 angularVelocity 2.60127313362924e-15 1.6586335624329e-14 9.34591077589811e-16 force -9.58396264602165e-06 -9.78571971651965e-07 4.22258503338454e-05 torque -4.13590306276514e-25 6.65880393105187e-23 1.31831910125639e-24 radius 0.00034645847388797 invMass 2391919.64042669