MercuryDPM 0.14 name HopperSelfTest revision 6705 repository https://svn.mercurydpm.org/SourceCode/MercuryLab
dataFile    fileType ONE_FILE saveCount 51 counter 26 lastSavedTimeStep 1251
fStatFile   fileType ONE_FILE saveCount 51 counter 26 lastSavedTimeStep 1251
eneFile     fileType ONE_FILE saveCount 51 counter 26 lastSavedTimeStep 1251
restartFile fileType ONE_FILE saveCount 51 counter 26 lastSavedTimeStep 1251
statFile    fileType ONE_FILE saveCount 51 counter 0
interactionFile fileType NO_FILE saveCount 0 counter 0
xMin 0 xMax 0.0589594510866257 yMin 0 yMax 0.0016 zMin 0 zMax 0.0280887601170343
timeStep 8e-06 time 0.010008 ntimeSteps 1251 timeMax 0.01
systemDimensions 3 particleDimensions 3 gravity 1.70175214113592 0 -9.65111597951964 backgroundDrag 0 writeVTK 0 NO_FILE NO_FILE 0 0 0 0 0 random  0 1103515245 12345 1073741824 607 273 784607267
Species 1
LinearViscoelasticSlidingFrictionSpecies id 0 density 2400 stiffness 14.4701448167677 dissipation 6.01461669101624e-05 slidingStiffness 0 slidingDissipation 0 slidingFrictionCoefficient 0.5 slidingFrictionCoefficientStatic 0.5
Walls 5
InfiniteWall id 0 indSpecies 0 position 0 0 0 orientation 0.707106781186548 0 0 -0.707106781186548 velocity 0 0 0 angularVelocity 0 0 0 force 0 0 0 torque 0 0 0
InfiniteWall id 1 indSpecies 0 position 0 0.0016 0 orientation 0.707106781186548 0 0 0.707106781186548 velocity 0 0 0 angularVelocity 0 0 0 force 0 0 0 torque 0 0 0
InfiniteWall id 2 indSpecies 0 position 0 0 -0.000727272727272727 orientation 0.707106781186548 0 0.707106781186548 0 velocity 0 0 0 angularVelocity 0 0 0 force 0 0 0 torque 0 0 0
IntersectionOfWalls id 3 indSpecies 0 position 0 0 0 orientation 1 0 0 0 velocity 0 0 0 angularVelocity 0 0 0 force 0 0 0 torque 0 0 0 numIntersectionOfWalls 3 position 0 0 0.0211428330103571 orientation 0.17364817766693 0 0.984807753012208 0 position 0.0295442325903662 0 -0.0600292789067895 orientation 0.996194698091745 0 -0.0871557427476582 0 position 0.0189594510866257 0 0 orientation 0.933944001109067 0 -0.357419365441196 0
IntersectionOfWalls id 4 indSpecies 0 position 0 0 0 orientation 1 0 0 0 velocity 0 0 0 angularVelocity 0 0 0 force 0 0 0 torque 0 0 0 numIntersectionOfWalls 3 position 0.0393923101204883 0 0.0280887601170343 orientation 1 0 -0 0 position 0.0393923101204883 0 -0.0582927971301202 orientation 0.0871557427476577 0 0.996194698091746 0 position 0.0273772354288139 0 0.00984807753012208 orientation 0.287132810912366 0 -0.957890781298976 0
Boundaries 1
HopperInsertionBoundary id 0 maxFailed 1 massInserted 0.000144921707152188 volumeInserted 6.03840446467449e-08 numberOfParticlesInserted 314 isActivated 1 psdCount 1 psd 50 0.00032 0 0.000321632653061225 0.0204081632653061 0.000323265306122449 0.0408163265306122 0.000324897959183674 0.0612244897959184 0.000326530612244898 0.0816326530612245 0.000328163265306123 0.102040816326531 0.000329795918367347 0.122448979591837 0.000331428571428572 0.142857142857143 0.000333061224489796 0.163265306122449 0.000334693877551021 0.183673469387755 0.000336326530612245 0.204081632653061 0.00033795918367347 0.224489795918367 0.000339591836734694 0.244897959183673 0.000341224489795919 0.26530612244898 0.000342857142857143 0.285714285714286 0.000344489795918368 0.306122448979592 0.000346122448979592 0.326530612244898 0.000347755102040817 0.346938775510204 0.000349387755102041 0.36734693877551 0.000351020408163266 0.387755102040816 0.00035265306122449 0.408163265306123 0.000354285714285715 0.428571428571429 0.000355918367346939 0.448979591836735 0.000357551020408164 0.469387755102041 0.000359183673469388 0.489795918367347 0.000360816326530613 0.510204081632653 0.000362448979591837 0.530612244897959 0.000364081632653062 0.551020408163266 0.000365714285714286 0.571428571428572 0.000367346938775511 0.591836734693878 0.000368979591836735 0.612244897959184 0.00037061224489796 0.63265306122449 0.000372244897959184 0.653061224489796 0.000373877551020409 0.673469387755102 0.000375510204081633 0.693877551020409 0.000377142857142858 0.714285714285715 0.000378775510204082 0.734693877551021 0.000380408163265307 0.755102040816327 0.000382040816326531 0.775510204081633 0.000383673469387756 0.795918367346939 0.00038530612244898 0.816326530612245 0.000386938775510205 0.836734693877552 0.000388571428571429 0.857142857142858 0.000390204081632654 0.877551020408164 0.000391836734693878 0.89795918367347 0.000393469387755103 0.918367346938776 0.000395102040816328 0.938775510204082 0.000396734693877552 0.959183673469388 0.000398367346938777 0.979591836734695 0.0004 1 initialVolume 0 samplingInterval 0 variableCumulativeVolumeFlowRate 0 particleToCopy 1 BaseParticle id 0 indSpecies 0 position 0 0 0 orientation 1 0 0 0 velocity 0 0 0 angularVelocity 0 0 0 force 0 0 0 torque 0 0 0 radius 1 invMass 1 yMin 0 yMax 0.0016 chuteAngle 0.174532925199433 fixedParticleRadius 0.00036 isHopperCentred_ 0 hopperDim 1 hopperAngle 1.0471975511966 hopperLength 0.04 hopperExitLength 0.01 hopperHeight 0.0241139 lift 0 fillPercent 50
Particles 424
BaseParticle id 0 indSpecies 0 position 0.0193194510866257 0.00036 0 orientation 1 0 0 0 velocity 0 0 0 angularVelocity 0 0 0 force 0 0 0 torque 0 0 0 radius 0.00036 invMass 0
BaseParticle id 1 indSpecies 0 position 0.0193194510866257 0.00116 0 orientation 1 0 0 0 velocity 0 0 0 angularVelocity 0 0 0 force 0 0 0 torque 0 0 0 radius 0.00036 invMass 0
BaseParticle id 2 indSpecies 0 position 0.0200467238138984 0.00036 0 orientation 1 0 0 0 velocity 0 0 0 angularVelocity 0 0 0 force 0 0 0 torque 0 0 0 radius 0.00036 invMass 0
BaseParticle id 3 indSpecies 0 position 0.0200467238138984 0.00116 0 orientation 1 0 0 0 velocity 0 0 0 angularVelocity 0 0 0 force 0 0 0 torque 0 0 0 radius 0.00036 invMass 0
BaseParticle id 4 indSpecies 0 position 0.0207739965411712 0.00036 0 orientation 1 0 0 0 velocity 0 0 0 angularVelocity 0 0 0 force 0 0 0 torque 0 0 0 radius 0.00036 invMass 0
BaseParticle id 5 indSpecies 0 position 0.0207739965411712 0.00116 0 orientation 1 0 0 0 velocity 0 0 0 angularVelocity 0 0 0 force 0 0 0 torque 0 0 0 radius 0.00036 invMass 0
BaseParticle id 6 indSpecies 0 position 0.0215012692684439 0.00036 0 orientation 1 0 0 0 velocity 0 0 0 angularVelocity 0 0 0 force 0 0 0 torque 0 0 0 radius 0.00036 invMass 0
BaseParticle id 7 indSpecies 0 position 0.0215012692684439 0.00116 0 orientation 1 0 0 0 velocity 0 0 0 angularVelocity 0 0 0 force 0 0 0 torque 0 0 0 radius 0.00036 invMass 0
BaseParticle id 8 indSpecies 0 position 0.0222285419957166 0.00036 0 orientation 1 0 0 0 velocity 0 0 0 angularVelocity 0 0 0 force 0 0 0 torque 0 0 0 radius 0.00036 invMass 0
BaseParticle id 9 indSpecies 0 position 0.0222285419957166 0.00116 0 orientation 1 0 0 0 velocity 0 0 0 angularVelocity 0 0 0 force 0 0 0 torque 0 0 0 radius 0.00036 invMass 0
BaseParticle id 10 indSpecies 0 position 0.0229558147229893 0.00036 0 orientation 1 0 0 0 velocity 0 0 0 angularVelocity 0 0 0 force 0 0 0 torque 0 0 0 radius 0.00036 invMass 0
BaseParticle id 11 indSpecies 0 position 0.0229558147229893 0.00116 0 orientation 1 0 0 0 velocity 0 0 0 angularVelocity 0 0 0 force 0 0 0 torque 0 0 0 radius 0.00036 invMass 0
BaseParticle id 12 indSpecies 0 position 0.0236830874502621 0.00036 0 orientation 1 0 0 0 velocity 0 0 0 angularVelocity 0 0 0 force 0 0 0 torque 0 0 0 radius 0.00036 invMass 0
BaseParticle id 13 indSpecies 0 position 0.0236830874502621 0.00116 0 orientation 1 0 0 0 velocity 0 0 0 angularVelocity 0 0 0 force 0 0 0 torque 0 0 0 radius 0.00036 invMass 0
BaseParticle id 14 indSpecies 0 position 0.0244103601775348 0.00036 0 orientation 1 0 0 0 velocity 0 0 0 angularVelocity 0 0 0 force 0 0 0 torque 0 0 0 radius 0.00036 invMass 0
BaseParticle id 15 indSpecies 0 position 0.0244103601775348 0.00116 0 orientation 1 0 0 0 velocity 0 0 0 angularVelocity 0 0 0 force 0 0 0 torque 0 0 0 radius 0.00036 invMass 0
BaseParticle id 16 indSpecies 0 position 0.0251376329048075 0.00036 0 orientation 1 0 0 0 velocity 0 0 0 angularVelocity 0 0 0 force 0 0 0 torque 0 0 0 radius 0.00036 invMass 0
BaseParticle id 17 indSpecies 0 position 0.0251376329048075 0.00116 0 orientation 1 0 0 0 velocity 0 0 0 angularVelocity 0 0 0 force 0 0 0 torque 0 0 0 radius 0.00036 invMass 0
BaseParticle id 18 indSpecies 0 position 0.0258649056320803 0.00036 0 orientation 1 0 0 0 velocity 0 0 0 angularVelocity 0 0 0 force 0 0 0 torque 0 0 0 radius 0.00036 invMass 0
BaseParticle id 19 indSpecies 0 position 0.0258649056320803 0.00116 0 orientation 1 0 0 0 velocity 0 0 0 angularVelocity 0 0 0 force 0 0 0 torque 0 0 0 radius 0.00036 invMass 0
BaseParticle id 20 indSpecies 0 position 0.026592178359353 0.00036 0 orientation 1 0 0 0 velocity 0 0 0 angularVelocity 0 0 0 force 0 0 0 torque 0 0 0 radius 0.00036 invMass 0
BaseParticle id 21 indSpecies 0 position 0.026592178359353 0.00116 0 orientation 1 0 0 0 velocity 0 0 0 angularVelocity 0 0 0 force 0 0 0 torque 0 0 0 radius 0.00036 invMass 0
BaseParticle id 22 indSpecies 0 position 0.0273194510866257 0.00036 0 orientation 1 0 0 0 velocity 0 0 0 angularVelocity 0 0 0 force 0 0 0 torque 0 0 0 radius 0.00036 invMass 0
BaseParticle id 23 indSpecies 0 position 0.0273194510866257 0.00116 0 orientation 1 0 0 0 velocity 0 0 0 angularVelocity 0 0 0 force 0 0 0 torque 0 0 0 radius 0.00036 invMass 0
BaseParticle id 24 indSpecies 0 position 0.0280467238138984 0.00036 0 orientation 1 0 0 0 velocity 0 0 0 angularVelocity 0 0 0 force 0 0 0 torque 0 0 0 radius 0.00036 invMass 0
BaseParticle id 25 indSpecies 0 position 0.0280467238138984 0.00116 0 orientation 1 0 0 0 velocity 0 0 0 angularVelocity 0 0 0 force 0 0 0 torque 0 0 0 radius 0.00036 invMass 0
BaseParticle id 26 indSpecies 0 position 0.0287739965411712 0.00036 0 orientation 1 0 0 0 velocity 0 0 0 angularVelocity 0 0 0 force 0 0 0 torque 0 0 0 radius 0.00036 invMass 0
BaseParticle id 27 indSpecies 0 position 0.0287739965411712 0.00116 0 orientation 1 0 0 0 velocity 0 0 0 angularVelocity 0 0 0 force 0 0 0 torque 0 0 0 radius 0.00036 invMass 0
BaseParticle id 28 indSpecies 0 position 0.0295012692684439 0.00036 0 orientation 1 0 0 0 velocity 0 0 0 angularVelocity 0 0 0 force 0 0 0 torque 0 0 0 radius 0.00036 invMass 0
BaseParticle id 29 indSpecies 0 position 0.0295012692684439 0.00116 0 orientation 1 0 0 0 velocity 0 0 0 angularVelocity 0 0 0 force 0 0 0 torque 0 0 0 radius 0.00036 invMass 0
BaseParticle id 30 indSpecies 0 position 0.0302285419957166 0.00036 0 orientation 1 0 0 0 velocity 0 0 0 angularVelocity 0 0 0 force 0 0 0 torque 0 0 0 radius 0.00036 invMass 0
BaseParticle id 31 indSpecies 0 position 0.0302285419957166 0.00116 0 orientation 1 0 0 0 velocity 0 0 0 angularVelocity 0 0 0 force 0 0 0 torque 0 0 0 radius 0.00036 invMass 0
BaseParticle id 32 indSpecies 0 position 0.0309558147229893 0.00036 0 orientation 1 0 0 0 velocity 0 0 0 angularVelocity 0 0 0 force 0 0 0 torque 0 0 0 radius 0.00036 invMass 0
BaseParticle id 33 indSpecies 0 position 0.0309558147229893 0.00116 0 orientation 1 0 0 0 velocity 0 0 0 angularVelocity 0 0 0 force 0 0 0 torque 0 0 0 radius 0.00036 invMass 0
BaseParticle id 34 indSpecies 0 position 0.0316830874502621 0.00036 0 orientation 1 0 0 0 velocity 0 0 0 angularVelocity 0 0 0 force 0 0 0 torque 0 0 0 radius 0.00036 invMass 0
BaseParticle id 35 indSpecies 0 position 0.0316830874502621 0.00116 0 orientation 1 0 0 0 velocity 0 0 0 angularVelocity 0 0 0 force 0 0 0 torque 0 0 0 radius 0.00036 invMass 0
BaseParticle id 36 indSpecies 0 position 0.0324103601775348 0.00036 0 orientation 1 0 0 0 velocity 0 0 0 angularVelocity 0 0 0 force 0 0 0 torque 0 0 0 radius 0.00036 invMass 0
BaseParticle id 37 indSpecies 0 position 0.0324103601775348 0.00116 0 orientation 1 0 0 0 velocity 0 0 0 angularVelocity 0 0 0 force 0 0 0 torque 0 0 0 radius 0.00036 invMass 0
BaseParticle id 38 indSpecies 0 position 0.0331376329048075 0.00036 0 orientation 1 0 0 0 velocity 0 0 0 angularVelocity 0 0 0 force 0 0 0 torque 0 0 0 radius 0.00036 invMass 0
BaseParticle id 39 indSpecies 0 position 0.0331376329048075 0.00116 0 orientation 1 0 0 0 velocity 0 0 0 angularVelocity 0 0 0 force 0 0 0 torque 0 0 0 radius 0.00036 invMass 0
BaseParticle id 40 indSpecies 0 position 0.0338649056320803 0.00036 0 orientation 1 0 0 0 velocity 0 0 0 angularVelocity 0 0 0 force 0 0 0 torque 0 0 0 radius 0.00036 invMass 0
BaseParticle id 41 indSpecies 0 position 0.0338649056320803 0.00116 0 orientation 1 0 0 0 velocity 0 0 0 angularVelocity 0 0 0 force 0 0 0 torque 0 0 0 radius 0.00036 invMass 0
BaseParticle id 42 indSpecies 0 position 0.034592178359353 0.00036 0 orientation 1 0 0 0 velocity 0 0 0 angularVelocity 0 0 0 force 0 0 0 torque 0 0 0 radius 0.00036 invMass 0
BaseParticle id 43 indSpecies 0 position 0.034592178359353 0.00116 0 orientation 1 0 0 0 velocity 0 0 0 angularVelocity 0 0 0 force 0 0 0 torque 0 0 0 radius 0.00036 invMass 0
BaseParticle id 44 indSpecies 0 position 0.0353194510866257 0.00036 0 orientation 1 0 0 0 velocity 0 0 0 angularVelocity 0 0 0 force 0 0 0 torque 0 0 0 radius 0.00036 invMass 0
BaseParticle id 45 indSpecies 0 position 0.0353194510866257 0.00116 0 orientation 1 0 0 0 velocity 0 0 0 angularVelocity 0 0 0 force 0 0 0 torque 0 0 0 radius 0.00036 invMass 0
BaseParticle id 46 indSpecies 0 position 0.0360467238138984 0.00036 0 orientation 1 0 0 0 velocity 0 0 0 angularVelocity 0 0 0 force 0 0 0 torque 0 0 0 radius 0.00036 invMass 0
BaseParticle id 47 indSpecies 0 position 0.0360467238138984 0.00116 0 orientation 1 0 0 0 velocity 0 0 0 angularVelocity 0 0 0 force 0 0 0 torque 0 0 0 radius 0.00036 invMass 0
BaseParticle id 48 indSpecies 0 position 0.0367739965411712 0.00036 0 orientation 1 0 0 0 velocity 0 0 0 angularVelocity 0 0 0 force 0 0 0 torque 0 0 0 radius 0.00036 invMass 0
BaseParticle id 49 indSpecies 0 position 0.0367739965411712 0.00116 0 orientation 1 0 0 0 velocity 0 0 0 angularVelocity 0 0 0 force 0 0 0 torque 0 0 0 radius 0.00036 invMass 0
BaseParticle id 50 indSpecies 0 position 0.0375012692684439 0.00036 0 orientation 1 0 0 0 velocity 0 0 0 angularVelocity 0 0 0 force 0 0 0 torque 0 0 0 radius 0.00036 invMass 0
BaseParticle id 51 indSpecies 0 position 0.0375012692684439 0.00116 0 orientation 1 0 0 0 velocity 0 0 0 angularVelocity 0 0 0 force 0 0 0 torque 0 0 0 radius 0.00036 invMass 0
BaseParticle id 52 indSpecies 0 position 0.0382285419957166 0.00036 0 orientation 1 0 0 0 velocity 0 0 0 angularVelocity 0 0 0 force 0 0 0 torque 0 0 0 radius 0.00036 invMass 0
BaseParticle id 53 indSpecies 0 position 0.0382285419957166 0.00116 0 orientation 1 0 0 0 velocity 0 0 0 angularVelocity 0 0 0 force 0 0 0 torque 0 0 0 radius 0.00036 invMass 0
BaseParticle id 54 indSpecies 0 position 0.0389558147229894 0.00036 0 orientation 1 0 0 0 velocity 0 0 0 angularVelocity 0 0 0 force 0 0 0 torque 0 0 0 radius 0.00036 invMass 0
BaseParticle id 55 indSpecies 0 position 0.0389558147229894 0.00116 0 orientation 1 0 0 0 velocity 0 0 0 angularVelocity 0 0 0 force 0 0 0 torque 0 0 0 radius 0.00036 invMass 0
BaseParticle id 56 indSpecies 0 position 0.0396830874502621 0.00036 0 orientation 1 0 0 0 velocity 0 0 0 angularVelocity 0 0 0 force 0 0 0 torque 0 0 0 radius 0.00036 invMass 0
BaseParticle id 57 indSpecies 0 position 0.0396830874502621 0.00116 0 orientation 1 0 0 0 velocity 0 0 0 angularVelocity 0 0 0 force 0 0 0 torque 0 0 0 radius 0.00036 invMass 0
BaseParticle id 58 indSpecies 0 position 0.0404103601775348 0.00036 0 orientation 1 0 0 0 velocity 0 0 0 angularVelocity 0 0 0 force 0 0 0 torque 0 0 0 radius 0.00036 invMass 0
BaseParticle id 59 indSpecies 0 position 0.0404103601775348 0.00116 0 orientation 1 0 0 0 velocity 0 0 0 angularVelocity 0 0 0 force 0 0 0 torque 0 0 0 radius 0.00036 invMass 0
BaseParticle id 60 indSpecies 0 position 0.0411376329048075 0.00036 0 orientation 1 0 0 0 velocity 0 0 0 angularVelocity 0 0 0 force 0 0 0 torque 0 0 0 radius 0.00036 invMass 0
BaseParticle id 61 indSpecies 0 position 0.0411376329048075 0.00116 0 orientation 1 0 0 0 velocity 0 0 0 angularVelocity 0 0 0 force 0 0 0 torque 0 0 0 radius 0.00036 invMass 0
BaseParticle id 62 indSpecies 0 position 0.0418649056320803 0.00036 0 orientation 1 0 0 0 velocity 0 0 0 angularVelocity 0 0 0 force 0 0 0 torque 0 0 0 radius 0.00036 invMass 0
BaseParticle id 63 indSpecies 0 position 0.0418649056320803 0.00116 0 orientation 1 0 0 0 velocity 0 0 0 angularVelocity 0 0 0 force 0 0 0 torque 0 0 0 radius 0.00036 invMass 0
BaseParticle id 64 indSpecies 0 position 0.042592178359353 0.00036 0 orientation 1 0 0 0 velocity 0 0 0 angularVelocity 0 0 0 force 0 0 0 torque 0 0 0 radius 0.00036 invMass 0
BaseParticle id 65 indSpecies 0 position 0.042592178359353 0.00116 0 orientation 1 0 0 0 velocity 0 0 0 angularVelocity 0 0 0 force 0 0 0 torque 0 0 0 radius 0.00036 invMass 0
BaseParticle id 66 indSpecies 0 position 0.0433194510866257 0.00036 0 orientation 1 0 0 0 velocity 0 0 0 angularVelocity 0 0 0 force 0 0 0 torque 0 0 0 radius 0.00036 invMass 0
BaseParticle id 67 indSpecies 0 position 0.0433194510866257 0.00116 0 orientation 1 0 0 0 velocity 0 0 0 angularVelocity 0 0 0 force 0 0 0 torque 0 0 0 radius 0.00036 invMass 0
BaseParticle id 68 indSpecies 0 position 0.0440467238138984 0.00036 0 orientation 1 0 0 0 velocity 0 0 0 angularVelocity 0 0 0 force 0 0 0 torque 0 0 0 radius 0.00036 invMass 0
BaseParticle id 69 indSpecies 0 position 0.0440467238138984 0.00116 0 orientation 1 0 0 0 velocity 0 0 0 angularVelocity 0 0 0 force 0 0 0 torque 0 0 0 radius 0.00036 invMass 0
BaseParticle id 70 indSpecies 0 position 0.0447739965411712 0.00036 0 orientation 1 0 0 0 velocity 0 0 0 angularVelocity 0 0 0 force 0 0 0 torque 0 0 0 radius 0.00036 invMass 0
BaseParticle id 71 indSpecies 0 position 0.0447739965411712 0.00116 0 orientation 1 0 0 0 velocity 0 0 0 angularVelocity 0 0 0 force 0 0 0 torque 0 0 0 radius 0.00036 invMass 0
BaseParticle id 72 indSpecies 0 position 0.0455012692684439 0.00036 0 orientation 1 0 0 0 velocity 0 0 0 angularVelocity 0 0 0 force 0 0 0 torque 0 0 0 radius 0.00036 invMass 0
BaseParticle id 73 indSpecies 0 position 0.0455012692684439 0.00116 0 orientation 1 0 0 0 velocity 0 0 0 angularVelocity 0 0 0 force 0 0 0 torque 0 0 0 radius 0.00036 invMass 0
BaseParticle id 74 indSpecies 0 position 0.0462285419957166 0.00036 0 orientation 1 0 0 0 velocity 0 0 0 angularVelocity 0 0 0 force 0 0 0 torque 0 0 0 radius 0.00036 invMass 0
BaseParticle id 75 indSpecies 0 position 0.0462285419957166 0.00116 0 orientation 1 0 0 0 velocity 0 0 0 angularVelocity 0 0 0 force 0 0 0 torque 0 0 0 radius 0.00036 invMass 0
BaseParticle id 76 indSpecies 0 position 0.0469558147229893 0.00036 0 orientation 1 0 0 0 velocity 0 0 0 angularVelocity 0 0 0 force 0 0 0 torque 0 0 0 radius 0.00036 invMass 0
BaseParticle id 77 indSpecies 0 position 0.0469558147229893 0.00116 0 orientation 1 0 0 0 velocity 0 0 0 angularVelocity 0 0 0 force 0 0 0 torque 0 0 0 radius 0.00036 invMass 0
BaseParticle id 78 indSpecies 0 position 0.0476830874502621 0.00036 0 orientation 1 0 0 0 velocity 0 0 0 angularVelocity 0 0 0 force 0 0 0 torque 0 0 0 radius 0.00036 invMass 0
BaseParticle id 79 indSpecies 0 position 0.0476830874502621 0.00116 0 orientation 1 0 0 0 velocity 0 0 0 angularVelocity 0 0 0 force 0 0 0 torque 0 0 0 radius 0.00036 invMass 0
BaseParticle id 80 indSpecies 0 position 0.0484103601775348 0.00036 0 orientation 1 0 0 0 velocity 0 0 0 angularVelocity 0 0 0 force 0 0 0 torque 0 0 0 radius 0.00036 invMass 0
BaseParticle id 81 indSpecies 0 position 0.0484103601775348 0.00116 0 orientation 1 0 0 0 velocity 0 0 0 angularVelocity 0 0 0 force 0 0 0 torque 0 0 0 radius 0.00036 invMass 0
BaseParticle id 82 indSpecies 0 position 0.0491376329048075 0.00036 0 orientation 1 0 0 0 velocity 0 0 0 angularVelocity 0 0 0 force 0 0 0 torque 0 0 0 radius 0.00036 invMass 0
BaseParticle id 83 indSpecies 0 position 0.0491376329048075 0.00116 0 orientation 1 0 0 0 velocity 0 0 0 angularVelocity 0 0 0 force 0 0 0 torque 0 0 0 radius 0.00036 invMass 0
BaseParticle id 84 indSpecies 0 position 0.0498649056320803 0.00036 0 orientation 1 0 0 0 velocity 0 0 0 angularVelocity 0 0 0 force 0 0 0 torque 0 0 0 radius 0.00036 invMass 0
BaseParticle id 85 indSpecies 0 position 0.0498649056320803 0.00116 0 orientation 1 0 0 0 velocity 0 0 0 angularVelocity 0 0 0 force 0 0 0 torque 0 0 0 radius 0.00036 invMass 0
BaseParticle id 86 indSpecies 0 position 0.050592178359353 0.00036 0 orientation 1 0 0 0 velocity 0 0 0 angularVelocity 0 0 0 force 0 0 0 torque 0 0 0 radius 0.00036 invMass 0
BaseParticle id 87 indSpecies 0 position 0.050592178359353 0.00116 0 orientation 1 0 0 0 velocity 0 0 0 angularVelocity 0 0 0 force 0 0 0 torque 0 0 0 radius 0.00036 invMass 0
BaseParticle id 88 indSpecies 0 position 0.0513194510866257 0.00036 0 orientation 1 0 0 0 velocity 0 0 0 angularVelocity 0 0 0 force 0 0 0 torque 0 0 0 radius 0.00036 invMass 0
BaseParticle id 89 indSpecies 0 position 0.0513194510866257 0.00116 0 orientation 1 0 0 0 velocity 0 0 0 angularVelocity 0 0 0 force 0 0 0 torque 0 0 0 radius 0.00036 invMass 0
BaseParticle id 90 indSpecies 0 position 0.0520467238138984 0.00036 0 orientation 1 0 0 0 velocity 0 0 0 angularVelocity 0 0 0 force 0 0 0 torque 0 0 0 radius 0.00036 invMass 0
BaseParticle id 91 indSpecies 0 position 0.0520467238138984 0.00116 0 orientation 1 0 0 0 velocity 0 0 0 angularVelocity 0 0 0 force 0 0 0 torque 0 0 0 radius 0.00036 invMass 0
BaseParticle id 92 indSpecies 0 position 0.0527739965411712 0.00036 0 orientation 1 0 0 0 velocity 0 0 0 angularVelocity 0 0 0 force 0 0 0 torque 0 0 0 radius 0.00036 invMass 0
BaseParticle id 93 indSpecies 0 position 0.0527739965411712 0.00116 0 orientation 1 0 0 0 velocity 0 0 0 angularVelocity 0 0 0 force 0 0 0 torque 0 0 0 radius 0.00036 invMass 0
BaseParticle id 94 indSpecies 0 position 0.0535012692684439 0.00036 0 orientation 1 0 0 0 velocity 0 0 0 angularVelocity 0 0 0 force 0 0 0 torque 0 0 0 radius 0.00036 invMass 0
BaseParticle id 95 indSpecies 0 position 0.0535012692684439 0.00116 0 orientation 1 0 0 0 velocity 0 0 0 angularVelocity 0 0 0 force 0 0 0 torque 0 0 0 radius 0.00036 invMass 0
BaseParticle id 96 indSpecies 0 position 0.0542285419957166 0.00036 0 orientation 1 0 0 0 velocity 0 0 0 angularVelocity 0 0 0 force 0 0 0 torque 0 0 0 radius 0.00036 invMass 0
BaseParticle id 97 indSpecies 0 position 0.0542285419957166 0.00116 0 orientation 1 0 0 0 velocity 0 0 0 angularVelocity 0 0 0 force 0 0 0 torque 0 0 0 radius 0.00036 invMass 0
BaseParticle id 98 indSpecies 0 position 0.0549558147229894 0.00036 0 orientation 1 0 0 0 velocity 0 0 0 angularVelocity 0 0 0 force 0 0 0 torque 0 0 0 radius 0.00036 invMass 0
BaseParticle id 99 indSpecies 0 position 0.0549558147229894 0.00116 0 orientation 1 0 0 0 velocity 0 0 0 angularVelocity 0 0 0 force 0 0 0 torque 0 0 0 radius 0.00036 invMass 0
BaseParticle id 100 indSpecies 0 position 0.0556830874502621 0.00036 0 orientation 1 0 0 0 velocity 0 0 0 angularVelocity 0 0 0 force 0 0 0 torque 0 0 0 radius 0.00036 invMass 0
BaseParticle id 101 indSpecies 0 position 0.0556830874502621 0.00116 0 orientation 1 0 0 0 velocity 0 0 0 angularVelocity 0 0 0 force 0 0 0 torque 0 0 0 radius 0.00036 invMass 0
BaseParticle id 102 indSpecies 0 position 0.0564103601775348 0.00036 0 orientation 1 0 0 0 velocity 0 0 0 angularVelocity 0 0 0 force 0 0 0 torque 0 0 0 radius 0.00036 invMass 0
BaseParticle id 103 indSpecies 0 position 0.0564103601775348 0.00116 0 orientation 1 0 0 0 velocity 0 0 0 angularVelocity 0 0 0 force 0 0 0 torque 0 0 0 radius 0.00036 invMass 0
BaseParticle id 104 indSpecies 0 position 0.0571376329048075 0.00036 0 orientation 1 0 0 0 velocity 0 0 0 angularVelocity 0 0 0 force 0 0 0 torque 0 0 0 radius 0.00036 invMass 0
BaseParticle id 105 indSpecies 0 position 0.0571376329048075 0.00116 0 orientation 1 0 0 0 velocity 0 0 0 angularVelocity 0 0 0 force 0 0 0 torque 0 0 0 radius 0.00036 invMass 0
BaseParticle id 106 indSpecies 0 position 0.0578649056320803 0.00036 0 orientation 1 0 0 0 velocity 0 0 0 angularVelocity 0 0 0 force 0 0 0 torque 0 0 0 radius 0.00036 invMass 0
BaseParticle id 107 indSpecies 0 position 0.0578649056320803 0.00116 0 orientation 1 0 0 0 velocity 0 0 0 angularVelocity 0 0 0 force 0 0 0 torque 0 0 0 radius 0.00036 invMass 0
BaseParticle id 108 indSpecies 0 position 0.058592178359353 0.00036 0 orientation 1 0 0 0 velocity 0 0 0 angularVelocity 0 0 0 force 0 0 0 torque 0 0 0 radius 0.00036 invMass 0
BaseParticle id 109 indSpecies 0 position 0.058592178359353 0.00116 0 orientation 1 0 0 0 velocity 0 0 0 angularVelocity 0 0 0 force 0 0 0 torque 0 0 0 radius 0.00036 invMass 0
BaseParticle id 110 indSpecies 0 position 0.0298538305850373 0.000786720874344497 0.0228187011889806 orientation 1 -2.20028381440574e-17 -8.54534011878431e-17 4.67545218181327e-17 velocity 0.0247948660388732 0.00942334135531281 -0.0756517559073803 angularVelocity -1.42568416502948e-14 -5.96544192600773e-14 3.22322048292304e-14 force 8.58852242345958e-07 0 -4.87079310775453e-06 torque 0 0 0 radius 0.000368898961290911 invMass 1981425.97437666
BaseParticle id 111 indSpecies 0 position 0.0292338468404746 0.00041887226938286 0.0212030243902129 orientation 1 1.65720543021373e-18 -1.25078620802096e-19 -5.92010527536621e-18 velocity 0.0176789256490881 -0.00255304446677419 -0.0963141750037455 angularVelocity 2.36891881304779e-15 -1.32779755188389e-16 -8.00865321345571e-15 force 9.99049591906662e-07 0 -5.66589178747674e-06 torque 0 0 0 radius 0.000387968944541106 invMass 1703371.03875711
BaseParticle id 112 indSpecies 0 position 0.0149928642288564 0.00102220772840358 0.0180081951816963 orientation 1 0 0 0 velocity 0.0170243284199239 0 -0.096549764259115 angularVelocity 0 0 0 force 1.01591443243494e-06 0 -5.76153705095553e-06 torque 0 0 0 radius 0.000390139860604896 invMass 1675093.97130737
BaseParticle id 113 indSpecies 0 position 0.0226409979542431 0.000670331593707344 0.0195581102154744 orientation 1 0 0 0 velocity 0.0170243284199239 0 -0.096549764259115 angularVelocity 0 0 0 force 9.97205329564106e-07 0 -5.6554324559828e-06 torque 0 0 0 radius 0.000387730065090887 invMass 1706521.3057774
BaseParticle id 114 indSpecies 0 position 0.0193094437190101 0.000703098220959209 0.0186133752956797 orientation 1 0 0 0 velocity 0.0170243284199239 0 -0.096549764259115 angularVelocity 0 0 0 force 8.64506503371763e-07 0 -4.90286001551356e-06 torque 0 0 0 radius 0.000369706741015006 invMass 1968466.55808686
BaseParticle id 115 indSpecies 0 position 0.0285891395462865 0.000523890234851344 0.0224829857728126 orientation 1 0 0 0 velocity 0.0170243284199239 0 -0.096549764259115 angularVelocity 0 0 0 force 7.31349843410202e-07 0 -4.14769107071254e-06 torque 0 0 0 radius 0.000349657626595406 invMass 2326864.70978217
BaseParticle id 116 indSpecies 0 position 0.00934079083685785 0.00102375146230854 0.0199262365461164 orientation 1 5.94133260766978e-17 4.36766150118553e-17 8.64206556249667e-18 velocity 0.0187194652055084 -0.0132314033714111 -0.0415969193595702 angularVelocity 6.83854399111726e-14 6.61635982043077e-14 1.32931016146968e-14 force -2.58694157925414e-06 9.12116135607757e-06 -4.33751231987342e-05 torque -1.3648480107125e-23 9.0989867380833e-24 3.25702366192755e-24 radius 0.000343544170346932 invMass 2453309.83004628
BaseParticle id 117 indSpecies 0 position 0.0158149359638069 0.000939156543471881 0.0192937510774914 orientation 1 -4.3714889941065e-18 2.54567482521555e-18 2.49333528260707e-18 velocity 0.0248937482104872 -0.00847335192964985 -0.0742785799723346 angularVelocity -9.98116381324271e-15 1.74054692621352e-14 1.01658660463615e-14 force 5.79865523050182e-07 0 -3.28858079869761e-06 torque 0 0 0 radius 0.000323626227231469 invMass 2934735.85424503
BaseParticle id 118 indSpecies 0 position 0.0115536947039461 0.000993438505121231 0.019506822745978 orientation 1 0 0 0 velocity 0.0170243284199239 0 -0.096549764259115 angularVelocity 0 0 0 force 6.85960875550616e-07 0 -3.89027744247925e-06 torque 0 0 0 radius 0.000342269129073734 invMass 2480829.74086523
BaseParticle id 119 indSpecies 0 position 0.0138314661532741 0.000833444651857631 0.0229069167819051 orientation 1 0 0 0 velocity 0.0170243284199239 0 -0.096549764259115 angularVelocity 0 0 0 force 7.8839110607956e-07 0 -4.4711881466573e-06 torque 0 0 0 radius 0.00035852148493798 invMass 2158512.6062599
BaseParticle id 120 indSpecies 0 position 0.0308733815463183 0.000859739737142477 0.0213912573870433 orientation 1 0 0 0 velocity 0.0170243284199239 0 -0.096549764259115 angularVelocity 0 0 0 force 9.68747300116083e-07 0 -5.49403895095208e-06 torque 0 0 0 radius 0.00038400609370481 invMass 1756652.26724451
BaseParticle id 121 indSpecies 0 position 0.0261676689719705 0.000784867448372914 0.0238016602955065 orientation 1 0 0 0 velocity 0.0170243284199239 0 -0.096549764259115 angularVelocity 0 0 0 force 7.87171519169273e-07 0 -4.46427152558555e-06 torque 0 0 0 radius 0.000358336520155506 invMass 2161856.85037466
BaseParticle id 122 indSpecies 0 position 0.015302371013745 0.00046750060720317 0.019831095733119 orientation 1 0 0 0 velocity 0.0170243284199239 0 -0.096549764259115 angularVelocity 0 0 0 force 7.47741868897499e-07 0 -4.24065486684535e-06 torque 0 0 0 radius 0.000352250685924157 invMass 2275855.09374385
BaseParticle id 123 indSpecies 0 position 0.016375560070064 0.000778596454806734 0.0181086530793845 orientation 1 0 0 0 velocity 0.0170243284199239 0 -0.096549764259115 angularVelocity 0 0 0 force 9.7901943040569e-07 0 -5.55229509671228e-06 torque 0 0 0 radius 0.000385358596435633 invMass 1738221.00796379
BaseParticle id 124 indSpecies 0 position 0.0296832236616107 0.0011143503969888 0.0245464858111701 orientation 1 0 0 0 velocity 0.0170243284199239 0 -0.096549764259115 angularVelocity 0 0 0 force 7.14094915985472e-07 0 -4.04983351450984e-06 torque 0 0 0 radius 0.000346885858088625 invMass 2383089.56280336