restart_version 2
name H10A20L1M0.5B0.5
xmin 0 xmax 20 ymin 0 ymax 10 zmin 0 zmax 12
dt 0.0001 t 2000.0001 tmax 2000 save_count 500000
dim 3 gravity 0.34202014 0 -0.93969262
options_fstat 0 options_data 0 options_ene 1 options_restart 2
Species 1
k 200000 disp 25 kt 57142.857 dispt 25 mu 0.5 rho 1.9098593 dim_particle 3
Walls 1
numFiniteWalls 0 normal 0 0 -1 position 1.7
WallsPeriodic 2
normal 1 0 0 pos_left 0 pos_right 20 shift 20 0 0
normal 0 1 0 pos_left 0 pos_right 10 shift 0 10 0
Particles 2297
19.009111 4.8417808 -0.24896328 0 0 0 0.5 0 0 0 0 0 0 0 0 0 
13.809875 3.8942946 -0.77727674 0 0 0 0.5 0 0 0 0 0 0 0 0 0 
5.5517794 4.1547456 -0.60352524 0 0 0 0.5 0 0 0 0 0 0 0 0 0 
19.793224 5.1188403 -0.80355794 0 0 0 0.5 0 0 0 0 0 0 0 0 0 
19.562519 3.9031682 -0.23169893 0 0 0 0.5 0 0 0 0 0 0 0 0 0 
5.5608621 8.5263255 -0.21591956 0 0 0 0.5 0 0 0 0 0 0 0 0 0 
16.216912 5.9096365 -0.94775575 0 0 0 0.5 0 0 0 0 0 0 0 0 0 
14.535995 1.3065091 -0.069504715 0 0 0 0.5 0 0 0 0 0 0 0 0 0 
10.180456 7.2100042 -0.13700305 0 0 0 0.5 0 0 0 0 0 0 0 0 0 
3.4213265 6.7272246 -0.9188929 0 0 0 0.5 0 0 0 0 0 0 0 0 0 
3.3419722 2.8388734 -0.0996109 0 0 0 0.5 0 0 0 0 0 0 0 0 0 
15.373979 8.2385974 -0.34907666 0 0 0 0.5 0 0 0 0 0 0 0 0 0 
13.366573 9.7331215 -0.68717884 0 0 0 0.5 0 0 0 0 0 0 0 0 0 
11.207025 8.5918603 -0.76360889 0 0 0 0.5 0 0 0 0 0 0 0 0 0 
8.2165963 0.46823794 -0.13294856 0 0 0 0.5 0 0 0 0 0 0 0 0 0 
6.5299107 8.2835176 -0.19079525 0 0 0 0.5 0 0 0 0 0 0 0 0 0 
0.86458764 9.2433128 -0.59922823 0 0 0 0.5 0 0 0 0 0 0 0 0 0 
10.713295 9.4613958 -0.75805734 0 0 0 0.5 0 0 0 0 0 0 0 0 0 
8.7004028 7.4688873 -0.93043963 0 0 0 0.5 0 0 0 0 0 0 0 0 0 
7.5161234 9.8634998 -0.72147491 0 0 0 0.5 0 0 0 0 0 0 0 0 0 
13.587682 7.9436759 -0.42840972 0 0 0 0.5 0 0 0 0 0 0 0 0 0 
13.050273 2.1455358 -0.97289164 0 0 0 0.5 0 0 0 0 0 0 0 0 0 
8.7042912 8.669545 -0.84591614 0 0 0 0.5 0 0 0 0 0 0 0 0 0 
4.0434174 5.1137429 -1.0795114 0 0 0 0.5 0 0 0 0 0 0 0 0 0 
15.034013 0.85012465 -1.0586053 0 0 0 0.5 0 0 0 0 0 0 0 0 0 
0.86477113 8.0376244 -0.074527267 0 0 0 0.5 0 0 0 0 0 0 0 0 0 
17.180207 6.1067788 -1.1379577 0 0 0 0.5 0 0 0 0 0 0 0 0 0 
14.394899 7.3729518 -0.27871791 0 0 0 0.5 0 0 0 0 0 0 0 0 0 
17.922673 9.0670322 -0.38226483 0 0 0 0.5 0 0 0 0 0 0 0 0 0 
17.203509 1.5843527 -0.027708017 0 0 0 0.5 0 0 0 0 0 0 0 0 0 
12.35488 1.3357783 -0.22259602 0 0 0 0.5 0 0 0 0 0 0 0 0 0 
6.1655943 2.3575759 -0.12202931 0 0 0 0.5 0 0 0 0 0 0 0 0 0 
12.377884 7.4172294 -0.65933582 0 0 0 0.5 0 0 0 0 0 0 0 0 0 
17.962699 6.5334116 -0.68620729 0 0 0 0.5 0 0 0 0 0 0 0 0 0 
9.3432018 3.5294701 -1.1646462 0 0 0 0.5 0 0 0 0 0 0 0 0 0 
8.6906382 5.733786 -0.36031688 0 0 0 0.5 0 0 0 0 0 0 0 0 0 
15.23775 2.0185073 -0.091852866 0 0 0 0.5 0 0 0 0 0 0 0 0 0 
5.3752315 7.0747017 -1.1499832 0 0 0 0.5 0 0 0 0 0 0 0 0 0 
16.006577 0.66205248 -0.92957761 0 0 0 0.5 0 0 0 0 0 0 0 0 0 
18.475197 8.2294174 -0.96486423 0 0 0 0.5 0 0 0 0 0 0 0 0 0 
19.919947 7.4659504 -0.20442716 0 0 0 0.5 0 0 0 0 0 0 0 0 0 
2.342195 1.7441596 -0.71910607 0 0 0 0.5 0 0 0 0 0 0 0 0 0 
19.253163 6.7515727 -0.60950458 0 0 0 0.5 0 0 0 0 0 0 0 0 0 
17.493503 4.2681537 -0.87991606 0 0 0 0.5 0 0 0 0 0 0 0 0 0 
15.8384 3.7774915 -0.65913478 0 0 0 0.5 0 0 0 0 0 0 0 0 0 
2.0273445 5.5240874 -0.52752289 0 0 0 0.5 0 0 0 0 0 0 0 0 0 
10.686115 5.2016106 -0.65733811 0 0 0 0.5 0 0 0 0 0 0 0 0 0 
10.785596 6.7386788 -0.77820048 0 0 0 0.5 0 0 0 0 0 0 0 0 0 
11.849683 9.8831502 -0.95314257 0 0 0 0.5 0 0 0 0 0 0 0 0 0 
15.451556 0.91051781 -0.13621381 0 0 0 0.5 0 0 0 0 0 0 0 0 0 
9.4465386 8.1303989 -0.44788299 0 0 0 0.5 0 0 0 0 0 0 0 0 0 
19.262952 4.3220281 -1.0887397 0 0 0 0.5 0 0 0 0 0 0 0 0 0 
10.726644 4.2531919 -0.96534243 0 0 0 0.5 0 0 0 0 0 0 0 0 0 
11.977115 5.3940067 -0.070761633 0 0 0 0.5 0 0 0 0 0 0 0 0 0 
13.542211 5.6509871 -0.82072957 0 0 0 0.5 0 0 0 0 0 0 0 0 0 
16.657673 3.2474461 -0.4438944 0 0 0 0.5 0 0 0 0 0 0 0 0 0 
15.698811 9.4236005 -1.0615255 0 0 0 0.5 0 0 0 0 0 0 0 0 0 
3.7463121 4.4269857 -0.33212855 0 0 0 0.5 0 0 0 0 0 0 0 0 0 
18.23843 2.6060774 -0.98050539 0 0 0 0.5 0 0 0 0 0 0 0 0 0 
11.307652 1.2270559 -0.55097732 0 0 0 0.5 0 0 0 0 0 0 0 0 0 
2.3773977 3.0964075 -0.14511647 0 0 0 0.5 0 0 0 0 0 0 0 0 0 
14.078287 2.1328165 -0.39593164 0 0 0 0.5 0 0 0 0 0 0 0 0 0 
3.2136923 8.5267475 -1.0285615 0 0 0 0.5 0 0 0 0 0 0 0 0 0 
2.0860745 4.3955698 -0.61222044 0 0 0 0.5 0 0 0 0 0 0 0 0 0 
6.6759583 5.2530526 -1.0472473 0 0 0 0.5 0 0 0 0 0 0 0 0 0 
3.807029 3.4785563 -0.7107748 0 0 0 0.5 0 0 0 0 0 0 0 0 0 
3.9638174 1.7237435 -1.1963257 0 0 0 0.5 0 0 0 0 0 0 0 0 0 
14.685747 2.923417 -0.32909857 0 0 0 0.5 0 0 0 0 0 0 0 0 0 
6.2783478 0.74822589 -0.94968541 0 0 0 0.5 0 0 0 0 0 0 0 0 0 
12.722576 6.2893502 -0.82881499 0 0 0 0.5 0 0 0 0 0 0 0 0 0 
15.858122 4.5839436 -0.068857227 0 0 0 0.5 0 0 0 0 0 0 0 0 0 
16.204105 1.5643737 -0.057756086 0 0 0 0.5 0 0 0 0 0 0 0 0 0 
15.379371 5.5159415 -0.50377614 0 0 0 0.5 0 0 0 0 0 0 0 0 0 
19.885893 2.9869625 -0.4682071 0 0 0 0.5 0 0 0 0 0 0 0 0 0 
2.9199337 5.4148103 -0.089286885 0 0 0 0.5 0 0 0 0 0 0 0 0 0 
7.9995177 2.3729312 -0.80904133 0 0 0 0.5 0 0 0 0 0 0 0 0 0 
16.285707 9.8705079 -0.38684707 0 0 0 0.5 0 0 0 0 0 0 0 0 0 
12.606495 3.10355 -0.94182118 0 0 0 0.5 0 0 0 0 0 0 0 0 0 
2.5427352 8.8098715 -0.33829678 0 0 0 0.5 0 0 0 0 0 0 0 0 0 
6.5418086 6.239308 -0.95520006 0 0 0 0.5 0 0 0 0 0 0 0 0 0 
19.03017 8.0943427 -0.012825477 0 0 0 0.5 0 0 0 0 0 0 0 0 0 
4.8094911 1.6361197 -0.67030192 0 0 0 0.5 0 0 0 0 0 0 0 0 0 
6.3877807 6.5383442 -0.01421026 0 0 0 0.5 0 0 0 0 0 0 0 0 0 
2.9826389 4.7894361 -0.86657134 0 0 0 0.5 0 0 0 0 0 0 0 0 0 
15.674281 2.9138526 -0.18313358 0 0 0 0.5 0 0 0 0 0 0 0 0 0 
8.016558 0.81725012 -1.0481706 0 0 0 0.5 0 0 0 0 0 0 0 0 0 
17.526857 8.5097465 -1.1118304 0 0 0 0.5 0 0 0 0 0 0 0 0 0 
19.479126 8.980321 -1.1126276 0 0 0 0.5 0 0 0 0 0 0 0 0 0 
12.906965 3.4157794 -0.01387747 0 0 0 0.5 0 0 0 0 0 0 0 0 0 
16.644033 1.4305923 -0.9813659 0 0 0 0.5 0 0 0 0 0 0 0 0 0 
15.227851 6.4511085 -0.8248633 0 0 0 0.5 0 0 0 0 0 0 0 0 0 
10.068634 3.7124299 -0.44237591 0 0 0 0.5 0 0 0 0 0 0 0 0 0 
12.111332 1.8167349 -1.0645461 0 0 0 0.5 0 0 0 0 0 0 0 0 0 
12.125374 8.9358606 -1.1466727 0 0 0 0.5 0 0 0 0 0 0 0 0 0 
0.56843207 6.1583162 -0.46847598 0 0 0 0.5 0 0 0 0 0 0 0 0 0 
8.4472159 9.5424026 -0.43162218 0 0 0 0.5 0 0 0 0 0 0 0 0 0 
9.2806436 4.2647729 -0.17270534 0 0 0 0.5 0 0 0 0 0 0 0 0 0 
7.433225 6.5474761 -0.62745654 0 0 0 0.5 0 0 0 0 0 0 0 0 0 
2.7003551 7.4213448 -0.90509146 0 0 0 0.5 0 0 0 0 0 0 0 0 0 
3.877457 7.3991914 -0.3368745 0 0 0 0.5 0 0 0 0 0 0 0 0 0 
16.25361 8.5664806 -1.0036354 0 0 0 0.5 0 0 0 0 0 0 0 0 0 
10.885512 3.2315155 -0.78553355 0 0 0 0.5 0 0 0 0 0 0 0 0 0 
4.8604514 8.9667624 -0.77637125 0 0 0 0.5 0 0 0 0 0 0 0 0 0 
1.2465552 4.8471685 -0.3110723 0 0 0 0.5 0 0 0 0 0 0 0 0 0 
7.4890991 4.1681512 -0.51500002 0 0 0 0.5 0 0 0 0 0 0 0 0 0 
4.9346967 5.5886811 -0.36039019 0 0 0 0.5 0 0 0 0 0 0 0 0 0 
17.294514 2.1738152 -0.82961741 0 0 0 0.5 0 0 0 0 0 0 0 0 0 
7.8531362 1.4925318 -0.31919036 0 0 0 0.5 0 0 0 0 0 0 0 0 0 
1.5627766 0.33919323 -0.027086105 0 0 0 0.5 0 0 0 0 0 0 0 0 0 
13.327844 1.3339096 -0.45229982 0 0 0 0.5 0 0 0 0 0 0 0 0 0 
0.6343571 0.28208565 -0.6140689 0 0 0 0.5 0 0 0 0 0 0 0 0 0 
14.445885 8.1580543 -0.89614085 0 0 0 0.5 0 0 0 0 0 0 0 0 0 
12.491315 9.6940632 -0.20540035 0 0 0 0.5 0 0 0 0 0 0 0 0 0 
12.415041 4.0848002 -0.57083123 0 0 0 0.5 0 0 0 0 0 0 0 0 0 
6.0476218 8.1983363 -1.1307176 0 0 0 0.5 0 0 0 0 0 0 0 0 0 
11.560564 9.3214263 -0.17832873 0 0 0 0.5 0 0 0 0 0 0 0 0 0 
8.2709264 6.9393082 -0.18273948 0 0 0 0.5 0 0 0 0 0 0 0 0 0 
12.953661 8.8070241 -0.20382154 0 0 0 0.5 0 0 0 0 0 0 0 0 0 
4.7717724 4.6182226 -0.18319728 0 0 0 0.5 0 0 0 0 0 0 0 0 0 
0.36285793 2.1698766 -0.14519381 0 0 0 0.5 0 0 0 0 0 0 0 0 0 
12.079914 8.3232819 -0.35630486 0 0 0 0.5 0 0 0 0 0 0 0 0 0 
6.2560987 9.8959989 -0.42838322 0 0 0 0.5 0 0 0 0 0 0 0 0 0 
5.117345 4.9190456 -1.0794489 0 0 0 0.5 0 0 0 0 0 0 0 0 0 
4.1405226 8.2729363 -0.74613048 0 0 0 0.5 0 0 0 0 0 0 0 0 0 
8.8094226 2.9138803 -0.58546474 0 0 0 0.5 0 0 0 0 0 0 0 0 0 
2.2751943 7.8742245 -0.10910272 0 0 0 0.5 0 0 0 0 0 0 0 0 0 
2.597946 0.147621 -0.41623468 0 0 0 0.5 0 0 0 0 0 0 0 0 0 
16.025254 6.5826909 -0.23429334 0 0 0 0.5 0 0 0 0 0 0 0 0 0 
13.921 6.5379633 -0.5574743 0 0 0 0.5 0 0 0 0 0 0 0 0 0 
18.91744 9.0484824 -0.28850422 0 0 0 0.5 0 0 0 0 0 0 0 0 0 
16.929401 8.1309846 -0.40574897 0 0 0 0.5 0 0 0 0 0 0 0 0 0 
17.287152 0.43131726 -1.1706751 0 0 0 0.5 0 0 0 0 0 0 0 0 0 
11.336312 2.2614734 -0.49939533 0 0 0 0.5 0 0 0 0 0 0 0 0 0 
11.617731 3.8277934 -1.11557 0 0 0 0.5 0 0 0 0 0 0 0 0 0 
14.418507 5.7076311 -0.30382398 0 0 0 0.5 0 0 0 0 0 0 0 0 0 
15.164172 0.005445807 -0.44925852 0 0 0 0.5 0 0 0 0 0 0 0 0 0 
3.2989929 1.9133165 -0.47416818 0 0 0 0.5 0 0 0 0 0 0 0 0 0 
14.277931 0.46003025 -0.53404659 0 0 0 0.5 0 0 0 0 0 0 0 0 0 
19.27942 5.8054427 -0.28964289 0 0 0 0.5 0 0 0 0 0 0 0 0 0 
0.84262412 2.8481724 -0.72969108 0 0 0 0.5 0 0 0 0 0 0 0 0 0 
13.645244 8.8050604 -0.93340789 0 0 0 0.5 0 0 0 0 0 0 0 0 0 
4.8662668 7.2695631 -0.27942524 0 0 0 0.5 0 0 0 0 0 0 0 0 0 
18.252317 0.16970319 -1.1461501 0 0 0 0.5 0 0 0 0 0 0 0 0 0 
3.2480064 8.1405895 -0.1070686 0 0 0 0.5 0 0 0 0 0 0 0 0 0 
6.9334793 5.7169189 -0.1991115 0 0 0 0.5 0 0 0 0 0 0 0 0 0 
17.335081 5.2469068 -0.46137838 0 0 0 0.5 0 0 0 0 0 0 0 0 0 
9.7427933 4.4392223 -1.0489089 0 0 0 0.5 0 0 0 0 0 0 0 0 0 
3.4443472 0.0830641 -0.94325748 0 0 0 0.5 0 0 0 0 0 0 0 0 0 
8.8558537 5.0608679 -1.0800503 0 0 0 0.5 0 0 0 0 0 0 0 0 0 
4.3581449 9.3606582 -0.0072419503 0 0 0 0.5 0 0 0 0 0 0 0 0 0 
18.117479 1.8718076 -0.31334073 0 0 0 0.5 0 0 0 0 0 0 0 0 0 
12.827132 8.2362032 -1.0149486 0 0 0 0.5 0 0 0 0 0 0 0 0 0 
17.610715 7.5488467 -0.84947348 0 0 0 0.5 0 0 0 0 0 0 0 0 0 
6.7796359 1.5953694 -0.33215435 0 0 0 0.5 0 0 0 0 0 0 0 0 0 
13.184498 4.6947769 -0.38117149 0 0 0 0.5 0 0 0 0 0 0 0 0 0 
9.2810078 9.0757373 -0.13793328 0 0 0 0.5 0 0 0 0 0 0 0 0 0 
18.926347 3.229394 -0.60901686 0 0 0 0.5 0 0 0 0 0 0 0 0 0 
7.8781477 3.2597185 -0.36328948 0 0 0 0.5 0 0 0 0 0 0 0 0 0 
16.267657 5.4955597 -0.039678228 0 0 0 0.5 0 0 0 0 0 0 0 0 0 
19.695924 6.0416353 -1.1752986 0 0 0 0.5 0 0 0 0 0 0 0 0 0 
2.0811106 3.4924957 -1.1796004 0 0 0 0.5 0 0 0 0 0 0 0 0 0 
0.45915163 7.8590657 -0.97064978 0 0 0 0.5 0 0 0 0 0 0 0 0 0 
1.3440318 1.7106588 -0.66786596 0 0 0 0.5 0 0 0 0 0 0 0 0 0 
1.7063369 7.5136515 -0.84841031 0 0 0 0.5 0 0 0 0 0 0 0 0 0 
7.038762 2.5287422 -0.57891221 0 0 0 0.5 0 0 0 0 0 0 0 0 0 
9.497371 1.1758425 -1.0518835 0 0 0 0.5 0 0 0 0 0 0 0 0 0 
17.528238 9.9830457 -0.30996725 0 0 0 0.5 0 0 0 0 0 0 0 0 0 
12.30525 2.4114986 -0.28402419 0 0 0 0.5 0 0 0 0 0 0 0 0 0 
2.2605901 8.2737039 -1.183421 0 0 0 0.5 0 0 0 0 0 0 0 0 0 
19.07566 0.72125769 -1.019394 0 0 0 0.5 0 0 0 0 0 0 0 0 0 
5.6739735 5.7501732 -1.0830391 0 0 0 0.5 0 0 0 0 0 0 0 0 0 
18.943942 1.3160191 -0.22672956 0 0 0 0.5 0 0 0 0 0 0 0 0 0 
8.6664773 1.7197362 -1.1646146 0 0 0 0.5 0 0 0 0 0 0 0 0 0 
10.486734 1.0801093 -1.1575256 0 0 0 0.5 0 0 0 0 0 0 0 0 0 
4.1341739 6.0500347 -0.74332122 0 0 0 0.5 0 0 0 0 0 0 0 0 0 
8.0379321 4.9766875 -0.30191055 0 0 0 0.5 0 0 0 0 0 0 0 0 0 
12.925419 5.7088482 -0.036078303 0 0 0 0.5 0 0 0 0 0 0 0 0 0 
11.8479 0.4773031 -0.14924897 0 0 0 0.5 0 0 0 0 0 0 0 0 0 
1.5735762 8.741936 -0.10467021 0 0 0 0.5 0 0 0 0 0 0 0 0 0 
7.748735 8.9164064 -0.99511962 0 0 0 0.5 0 0 0 0 0 0 0 0 0 
10.873215 0.35311098 -0.33543571 0 0 0 0.5 0 0 0 0 0 0 0 0 0 
8.3394361 6.4011831 -1.0221561 0 0 0 0.5 0 0 0 0 0 0 0 0 0 
1.4062252 6.131712 -1.0395699 0 0 0 0.5 0 0 0 0 0 0 0 0 0 
3.958402 5.3597255 -0.041282368 0 0 0 0.5 0 0 0 0 0 0 0 0 0 
19.392966 9.8667961 -0.60930126 0 0 0 0.5 0 0 0 0 0 0 0 0 0 
7.7097786 7.4935787 -0.79672245 0 0 0 0.5 0 0 0 0 0 0 0 0 0 
16.834173 0.70330748 -0.32212776 0 0 0 0.5 0 0 0 0 0 0 0 0 0 
4.1792906 2.3876319 -0.47448372 0 0 0 0.5 0 0 0 0 0 0 0 0 0 
5.7737697 3.132453 -0.61911983 0 0 0 0.5 0 0 0 0 0 0 0 0 0 
1.2598145 4.1394057 -1.1130933 0 0 0 0.5 0 0 0 0 0 0 0 0 0 
14.135291 9.5845665 -0.065830801 0 0 0 0.5 0 0 0 0 0 0 0 0 0 
1.2872433 8.4193596 -1.0079498 0 0 0 0.5 0 0 0 0 0 0 0 0 0 
5.8163897 5.0852707 -0.35097137 0 0 0 0.5 0 0 0 0 0 0 0 0 0 
10.066018 0.20782103 -0.91029153 0 0 0 0.5 0 0 0 0 0 0 0 0 0 
7.2353001 0.70796927 -0.26583382 0 0 0 0.5 0 0 0 0 0 0 0 0 0 
17.946824 0.91675358 -0.5555375 0 0 0 0.5 0 0 0 0 0 0 0 0 0 
18.518722 0.10548389 -0.18461275 0 0 0 0.5 0 0 0 0 0 0 0 0 0 
17.392493 3.1279607 -1.1110233 0 0 0 0.5 0 0 0 0 0 0 0 0 0 
12.563831 5.3033912 -0.87559375 0 0 0 0.5 0 0 0 0 0 0 0 0 0 
3.0301454 0.98830741 -0.74094925 0 0 0 0.5 0 0 0 0 0 0 0 0 0 
14.789656 9.0848375 -0.63307291 0 0 0 0.5 0 0 0 0 0 0 0 0 0 
0.76591659 5.3533583 -1.0268598 0 0 0 0.5 0 0 0 0 0 0 0 0 0 
9.3937127 2.0603226 -0.5689336 0 0 0 0.5 0 0 0 0 0 0 0 0 0 
16.465276 4.9422347 -0.84868413 0 0 0 0.5 0 0 0 0 0 0 0 0 0 
3.2049107 5.7541726 -1.0165892 0 0 0 0.5 0 0 0 0 0 0 0 0 0 
10.965378 3.893968 -0.039018533 0 0 0 0.5 0 0 0 0 0 0 0 0 0 
11.666086 6.9629197 -1.1930219 0 0 0 0.5 0 0 0 0 0 0 0 0 0 
0.16217955 6.9048891 -0.99581323 0 0 0 0.5 0 0 0 0 0 0 0 0 0 
7.0438615 8.1992023 -1.044164 0 0 0 0.5 0 0 0 0 0 0 0 0 0 
10.22837 8.768928 -0.22497042 0 0 0 0.5 0 0 0 0 0 0 0 0 0 
2.5235672 6.3840667 -0.64383278 0 0 0 0.5 0 0 0 0 0 0 0 0 0 
17.948715 3.2709741 -0.29235671 0 0 0 0.5 0 0 0 0 0 0 0 0 0 
18.320792 5.5542837 -0.41667255 0 0 0 0.5 0 0 0 0 0 0 0 0 0 
16.318669 2.3361522 -0.68313016 0 0 0 0.5 0 0 0 0 0 0 0 0 0 
5.8269404 9.1562384 -0.94701943 0 0 0 0.5 0 0 0 0 0 0 0 0 0 
5.2784129 9.7364165 -0.29297998 0 0 0 0.5 0 0 0 0 0 0 0 0 0 
2.7050339 9.4301296 -1.1047836 0 0 0 0.5 0 0 0 0 0 0 0 0 0 
15.511659 4.6563616 -1.0040712 0 0 0 0.5 0 0 0 0 0 0 0 0 0 
13.248043 7.3385539 -1.1474735 0 0 0 0.5 0 0 0 0 0 0 0 0 0 
19.36412 2.1439434 -0.59764931 0 0 0 0.5 0 0 0 0 0 0 0 0 0 
6.7482243 3.4535243 -0.33759622 0 0 0 0.5 0 0 0 0 0 0 0 0 0 
4.3838663 6.9504711 -1.094259 0 0 0 0.5 0 0 0 0 0 0 0 0 0 
8.4605474 4.0067042 -0.68255122 0 0 0 0.5 0 0 0 0 0 0 0 0 0 
0.93076264 7.0880598 -0.38378408 0 0 0 0.5 0 0 0 0 0 0 0 0 0 
10.440604 7.9496268 -0.75697933 0 0 0 0.5 0 0 0 0 0 0 0 0 0 
13.540837 2.9432128 -0.62547644 0 0 0 0.5 0 0 0 0 0 0 0 0 0 
4.4306496 4.1937646 -1.0212237 0 0 0 0.5 0 0 0 0 0 0 0 0 0 
5.4653239 6.4358523 -0.38625242 0 0 0 0.5 0 0 0 0 0 0 0 0 0 
9.690216 7.3341231 -1.0002723 0 0 0 0.5 0 0 0 0 0 0 0 0 0 
5.812852 7.5665159 -0.39362428 0 0 0 0.5 0 0 0 0 0 0 0 0 0 
0.10451742 8.6179187 -0.42204849 0 0 0 0.5 0 0 0 0 0 0 0 0 0 
5.5944429 2.1988375 -0.92728717 0 0 0 0.5 0 0 0 0 0 0 0 0 0 
11.837768 3.2951193 -0.29868729 0 0 0 0.5 0 0 0 0 0 0 0 0 0 
2.9234914 3.8731159 -0.45856675 0 0 0 0.5 0 0 0 0 0 0 0 0 0 
16.104458 7.6345956 -0.67342419 0 0 0 0.5 0 0 0 0 0 0 0 0 0 
2.8106655 2.6562659 -0.9316452 0 0 0 0.5 0 0 0 0 0 0 0 0 0 
9.1199055 0.35958886 -0.61551899 0 0 0 0.5 0 0 0 0 0 0 0 0 0 
5.7994732 1.3997075 -0.36158056 0 0 0 0.5 0 0 0 0 0 0 0 0 0 
10.071134 0.96251063 -0.2550641 0 0 0 0.5 0 0 0 0 0 0 0 0 0 
19.77684 0.74200996 -0.30601069 0 0 0 0.5 0 0 0 0 0 0 0 0 0 
14.165331 1.3402031 -0.99790401 0 0 0 0.5 0 0 0 0 0 0 0 0 0 
1.8070193 2.5893485 -0.79039818 0 0 0 0.5 0 0 0 0 0 0 0 0 0 
1.667264 6.4145293 -0.11714092 0 0 0 0.5 0 0 0 0 0 0 0 0 0 
0.32089931 4.271173 -0.79581161 0 0 0 0.5 0 0 0 0 0 0 0 0 0 
7.6143991 5.5888244 -0.96911458 0 0 0 0.5 0 0 0 0 0 0 0 0 0 
5.105805 2.5567007 -0.13212177 0 0 0 0.5 0 0 0 0 0 0 0 0 0 
16.825686 6.9435971 -0.72005987 0 0 0 0.5 0 0 0 0 0 0 0 0 0 
18.501394 9.2019981 -1.1951819 0 0 0 0.5 0 0 0 0 0 0 0 0 0 
0.15661435 9.6300393 -0.0090132672 0 0 0 0.5 0 0 0 0 0 0 0 0 0 
1.7970379 9.6005612 -0.65794258 0 0 0 0.5 0 0 0 0 0 0 0 0 0 
15.15484 7.4498569 -0.92301676 0 0 0 0.5 0 0 0 0 0 0 0 0 0 
5.0872521 8.0042546 -0.92427146 0 0 0 0.5 0 0 0 0 0 0 0 0 0 
10.029751 9.7300495 -0.032750693 0 0 0 0.5 0 0 0 0 0 0 0 0 0 
4.5002078 9.95578 -0.88127416 0 0 0 0.5 0 0 0 0 0 0 0 0 0 
15.633092 9.170716 -0.096482398 0 0 0 0.5 0 0 0 0 0 0 0 0 0 
13.094183 6.9327498 -0.15762933 0 0 0 0.5 0 0 0 0 0 0 0 0 0 
11.33655 7.5936095 -0.49098156 0 0 0 0.5 0 0 0 0 0 0 0 0 0 
8.8249086 1.258198 -0.29165699 0 0 0 0.5 0 0 0 0 0 0 0 0 0 
0.54589657 3.6227789 -0.06862893 0 0 0 0.5 0 0 0 0 0 0 0 0 0 
18.530708 1.5478274 -1.1646706 0 0 0 0.5 0 0 0 0 0 0 0 0 0 
14.924125 3.9545618 -0.29560731 0 0 0 0.5 0 0 0 0 0 0 0 0 0 
8.4615171 8.0164423 -0.12897922 0 0 0 0.5 0 0 0 0 0 0 0 0 0 
16.952689 9.1588918 -0.60545627 0 0 0 0.5 0 0 0 0 0 0 0 0 0 
14.184071 4.7397171 -0.39659702 0 0 0 0.5 0 0 0 0 0 0 0 0 0 
6.517793 4.4025096 -0.54960416 0 0 0 0.5 0 0 0 0 0 0 0 0 0 
18.483001 7.3538512 -0.40243172 0 0 0 0.5 0 0 0 0 0 0 0 0 0 
10.121178 6.0214348 -0.57315551 0 0 0 0.5 0 0 0 0 0 0 0 0 0 
6.7851115 7.3461154 -0.44894394 0 0 0 0.5 0 0 0 0 0 0 0 0 0 
3.4574059 6.2560466 -0.037426403 0 0 0 0.5 0 0 0 0 0 0 0 0 0 
12.743312 0.52200261 -0.70797936 0 0 0 0.5 0 0 0 0 0 0 0 0 0 
7.3845213 1.5752532 -1.1980784 0 0 0 0.5 0 0 0 0 0 0 0 0 0 
9.5500273 5.206742 -0.37220347 0 0 0 0.5 0 0 0 0 0 0 0 0 0 
9.259225 9.4738246 -1.0573646 0 0 0 0.5 0 0 0 0 0 0 0 0 0 
4.1386055 0.8708894 -0.70379195 0 0 0 0.5 0 0 0 0 0 0 0 0 0 
11.470166 6.0192048 -0.66367077 0 0 0 0.5 0 0 0 0 0 0 0 0 0 
11.536141 4.5912983 -0.47192676 0 0 0 0.5 0 0 0 0 0 0 0 0 0 
1.9592696 0.81195279 -0.81414268 0 0 0 0.5 0 0 0 0 0 0 0 0 0 
9.9822382 2.8121173 -0.86619136 0 0 0 0.5 0 0 0 0 0 0 0 0 0 
10.403064 1.9331225 -0.64340374 0 0 0 0.5 0 0 0 0 0 0 0 0 0 
14.870177 2.2061334 -1.0022641 0 0 0 0.5 0 0 0 0 0 0 0 0 0 
15.664 1.6086803 -0.89802714 0 0 0 0.5 0 0 0 0 0 0 0 0 0 
1.5062852 3.5411477 -0.35196296 0 0 0 0.5 0 0 0 0 0 0 0 0 0 
5.110032 0.68772283 -0.55147198 0 0 0 0.5 0 0 0 0 0 0 0 0 0 
6.8037688 9.1216611 -0.74176189 0 0 0 0.5 0 0 0 0 0 0 0 0 0 
0.40602202 1.3778394 -0.75348021 0 0 0 0.5 0 0 0 0 0 0 0 0 0 
3.4344672 9.2598245 -0.37631743 0 0 0 0.5 0 0 0 0 0 0 0 0 0 
19.458073 8.0010551 -0.91160224 0 0 0 0.5 0 0 0 0 0 0 0 0 0 
16.776673 4.206989 -0.18577169 0 0 0 0.5 0 0 0 0 0 0 0 0 0 
9.2536151 6.5121729 -0.63667318 0 0 0 0.5 0 0 0 0 0 0 0 0 0 
18.430869 4.0971512 -0.5822226 0 0 0 0.5 0 0 0 0 0 0 0 0 0 
17.909879 8.1138038 -0.080108903 0 0 0 0.5 0 0 0 0 0 0 0 0 0 
15.306545 3.0912459 -1.1598374 0 0 0 0.5 0 0 0 0 0 0 0 0 0 
10.546115 2.6954085 -0.012695634 0 0 0 0.5 0 0 0 0 0 0 0 0 0 
17.020294 6.1441482 -0.15184553 0 0 0 0.5 0 0 0 0 0 0 0 0 0 
7.3075666 3.4315435 -1.1656661 0 0 0 0.5 0 0 0 0 0 0 0 0 0 
4.7948421 3.3179784 -0.70085971 0 0 0 0.5 0 0 0 0 0 0 0 0 0 
12.076644 6.6176439 -0.14008962 0 0 0 0.5 0 0 0 0 0 0 0 0 0 
0.8773253 2.5637896 1.110131 -2.0941572e-12 7.0694209e-12 7.8432487e-13 0.5 1.0808214 0.59600906 -0.46760759 -1.173176e-11 -6.5334378e-12 -3.6767061e-12 1 10 0 
12.583886 8.8394779 3.2291255 7.845287e-12 -7.1514865e-12 1.1771141e-12 0.5 -1.0226749 -0.068253729 0.37222632 5.6638285e-11 5.5928728e-11 -1.2051092e-11 1 10 0 
7.3475323 1.5396198 2.9751816 6.7889138e-12 -2.5644345e-12 7.8204825e-12 0.5 0.01090117 3.0276796 -0.10698308 -2.1780319e-11 2.9618913e-11 2.3618298e-11 1 10 0 
5.2572005 2.3289234 3.2047291 4.1581612e-12 -6.6325234e-12 6.0537456e-13 0.5 0.5255995 1.2829573 0.52417551 -3.2996272e-13 3.953227e-12 -1.7589422e-11 1 10 0 
1.604699 5.1019921 4.2350191 4.0811369e-12 -4.3922995e-12 -3.2148881e-12 0.5 0.50569692 0.19155595 -1.3872812 4.1855759e-11 3.153561e-11 -3.0211143e-11 1 10 0 
9.7355758 4.3258416 2.6528733 1.3624935e-11 1.2739396e-11 -4.4138502e-12 0.5 -2.0965617 -1.4960157 -0.388049 -2.5957515e-11 3.5098579e-11 2.5720803e-11 1 10 0 
3.8273444 1.660846 2.3565369 3.7709594e-12 -7.031442e-12 2.4612275e-12 0.5 0.47618189 -0.4474009 1.1448234 5.5090969e-12 5.699522e-12 -1.5061731e-12 1 10 0 
17.846148 8.124652 4.7024181 3.3826684e-12 -8.1371976e-12 -8.7616506e-12 0.5 0.04518552 2.517814 -0.43951123 2.4276077e-12 -5.3529158e-11 4.4586381e-11 1 10 0 
9.6186069 3.471516 5.0841085 5.5097258e-12 5.9773736e-12 -1.0230211e-11 0.5 -0.22382959 0.35303627 -0.27733901 -1.1278258e-11 -8.0593844e-12 -3.330429e-12 1 10 0 
2.6152486 1.3135629 1.101552 2.5720382e-12 -1.9781863e-12 -2.9559279e-12 0.5 1.1066925 -0.17438096 -0.20553351 -3.7912059e-12 2.384662e-12 1.9282749e-11 1 10 0 
15.822911 0.68126982 2.4075502 2.7802703e-12 1.3563263e-12 -5.5947044e-12 0.5 0.92121466 -0.85312195 0.10553318 5.4866497e-11 -8.6459699e-12 -1.5782476e-11 1 10 0 
16.847268 4.8569512 1.619654 -6.1205677e-12 4.2748501e-12 -7.0107543e-12 0.5 0.16965118 0.70662289 0.42326256 7.9079751e-12 -3.9352383e-12 5.4821871e-12 1 10 0 
11.925422 6.4569218 0.95199038 -7.305209e-13 2.5474114e-13 -5.0986565e-13 0.5 0.85117182 -0.55898515 -0.46672724 -1.1062783e-11 3.3692686e-12 -2.1929876e-11 1 10 0 
4.8339537 6.7874426 2.4484598 3.983784e-12 6.3190604e-13 3.4061126e-12 0.5 0.26326485 1.8640285 -0.85022515 -1.7927043e-11 -1.0126939e-11 5.8848803e-12 1 10 0 
1.0699562 5.3709332 5.0360129 7.6545391e-12 -5.6986004e-12 2.4523726e-12 0.5 1.9737555 0.8877101 -0.05620861 -1.6235672e-11 -2.7072493e-11 1.5622833e-11 1 10 1 -1.5003093e-05 5.7298044e-05 -2.9254406e-05 301 -1 2000.0001 
14.206685 7.9944814 1.4575064 2.389706e-12 2.3882229e-12 -8.3942448e-12 0.5 1.6568357 1.1822951 -0.033484755 -2.5786967e-11 7.6258263e-12 1.7688407e-11 1 10 0 
4.8178162 8.6123589 2.1748271 4.0727968e-12 9.0889538e-12 1.115122e-11 0.5 0.50129621 0.90416055 -0.42402452 -4.3732249e-11 -1.1690424e-11 -1.2483567e-11 1 10 0 
15.804609 7.20022 3.2027951 -5.5297233e-12 -2.5868238e-12 -1.5063948e-12 0.5 -0.79434688 1.0139908 0.32958245 -2.481895e-12 5.7125363e-12 -3.9098489e-12 1 10 0 
14.303932 7.1939474 3.0507473 -1.892965e-12 5.5492862e-12 -6.8199498e-12 0.5 0.74359773 -0.10709202 -0.41601546 -3.595805e-11 4.1354341e-11 1.6196955e-11 1 10 0 
18.89128 4.0207463 2.7784202 -1.8870302e-12 -4.3361859e-12 1.589992e-12 0.5 -0.38011372 0.71559153 2.0570981 -4.1442542e-11 -4.0381391e-11 2.7953068e-11 1 10 0 
4.8595388 1.7027376 0.3262113 4.6755593e-12 -1.8210617e-12 9.348414e-13 0.5 0.48827771 0.64367441 0.10720247 1.7093663e-12 1.0030941e-11 4.4644604e-12 1 10 2 4.2208285e-06 1.0407123e-05 -9.0770873e-07 81 -1 2000.0001 -9.7817932e-07 -6.9121796e-06 -1.340431e-05 245 -1 2000.0001 
12.140309 6.0515549 2.7464999 4.6250492e-12 4.2256927e-12 1.6508845e-12 0.5 0.52848045 1.6687628 0.43609698 -8.4881011e-12 1.4610957e-11 -7.150759e-12 1 10 0 
17.536481 6.9671353 2.3361887 1.6968286e-11 -9.9135911e-13 1.0359096e-11 0.5 -0.54946905 -0.62400159 -0.47840229 1.9474654e-11 -8.0774039e-13 -2.2196456e-11 1 10 0 
7.3045735 4.962663 3.6076135 2.1474915e-12 6.5613301e-12 1.3142451e-12 0.5 1.544068 0.07709116 1.16633 1.6365385e-11 -4.6647953e-11 -2.4752932e-11 1 10 0 
5.6412309 1.3014421 2.9926623 -1.912232e-12 3.9276192e-12 -2.7377587e-12 0.5 0.94023147 0.083165342 -1.0216385 -7.5589735e-12 -3.0416681e-12 -3.2138009e-11 1 10 0 
11.869875 1.405828 2.3476688 6.6214555e-12 -3.8151818e-12 4.9332975e-12 0.5 -1.0960424 -0.81110482 -0.31156347 3.5748608e-12 8.1959956e-13 9.6442401e-16 1 10 0 
2.5939831 8.351274 4.5383845 2.3928849e-12 7.425491e-12 -3.7530337e-12 0.5 -0.65070812 0.53535522 -0.69763863 1.4486675e-11 8.070147e-12 -3.2313957e-11 1 10 0 
6.4091194 4.791935 3.1856217 -7.3050179e-12 3.6546489e-12 -9.4044017e-13 0.5 0.47083767 -0.43508157 -0.60107201 1.5887509e-11 2.4643457e-11 -1.7276019e-11 1 10 1 1.0552952e-07 -2.772424e-09 -2.3519724e-07 320 -1 17.2011 
15.01235 9.6078622 1.5232942 6.3779751e-12 8.6296571e-12 7.7348744e-13 0.5 1.5582102 -0.54506577 0.37988193 2.6621982e-11 -2.153375e-11 1.0024459e-11 1 10 0 
8.4370322 6.8031822 3.6002314 3.9535358e-12 -9.10379e-12 -1.4501265e-12 0.5 0.96774431 -0.3267214 -0.16199648 2.0183808e-12 -2.1270018e-11 -1.6227225e-11 1 10 0 
0.076473416 9.0199434 3.6796775 -5.8553769e-13 -6.5885795e-12 -9.349645e-12 0.5 -1.3890094 1.4217994 -0.64907106 2.1030245e-11 -1.6824242e-11 -2.9806079e-11 1 10 0 
18.26615 3.7688794 1.1576657 1.5332812e-11 5.7657706e-12 1.2001585e-12 0.5 -2.4810813 1.0861632 -1.5944779 3.0373773e-12 3.3334044e-11 8.2368062e-12 1 10 0 
14.36779 0.60756403 4.9249069 8.2127431e-12 1.6990455e-12 -1.2436071e-11 0.5 0.22499091 3.4023847 0.64545901 2.2262442e-11 2.6956903e-11 -3.4711396e-12 1 10 0 
18.251489 1.9795379 2.2394196 -4.56985e-12 -1.2140691e-12 1.7293513e-13 0.5 0.51580288 0.71112219 1.3593432 7.3925803e-12 6.7151297e-12 -2.6936314e-11 1 10 0 
15.382452 2.9060033 2.6114566 -5.5552912e-12 6.0570929e-12 2.2608525e-13 0.5 0.05673496 1.4791418 -0.45824945 2.2442511e-11 -1.3670527e-12 -1.5606521e-11 1 10 0 
9.8471813 7.0267439 2.2113377 -8.6203507e-12 1.2702154e-14 1.5278802e-12 0.5 1.5874196 1.6976535 0.041374719 -7.4983517e-12 -1.6294876e-12 -2.1396696e-11 1 10 0 
18.066744 6.2577683 1.3825001 -4.346212e-12 4.6645133e-12 -1.0433569e-12 0.5 -0.52497634 0.22519435 -0.18933055 -1.7882262e-12 -2.3372999e-11 -4.7681259e-11 1 10 0 
19.200499 6.4552285 3.6750191 1.0766439e-11 -2.0095598e-12 -6.8757776e-12 0.5 0.441813 -0.64505347 -0.44746236 1.9793518e-11 -4.5205167e-12 1.5828707e-11 1 10 0 
11.743913 3.0872462 4.1114555 1.3295664e-12 2.3125541e-12 -4.6689318e-12 0.5 0.31544804 -1.8364205 -0.4719704 -2.139716e-11 1.2389799e-11 1.3055744e-11 1 10 0 
17.403434 6.2217354 3.0738834 1.574766e-11 -1.0990527e-11 -5.7138704e-12 0.5 -0.42682366 0.0043410074 -0.45319804 -2.0349204e-11 8.6198545e-12 3.0471656e-11 1 10 1 -1.0556829e-05 8.4022699e-06 6.5848157e-06 319 -1 3.9199 
9.6924278 3.8743477 1.7617138 4.4133102e-12 8.9915837e-13 -1.1184003e-12 0.5 0.074375332 0.326923 -0.98591886 6.5440552e-12 -4.6264058e-12 -1.5530038e-11 1 10 1 -5.0617128e-05 1.6650452e-07 2.3664146e-06 302 -1 2000.0001 
11.258966 6.7494025 3.5503212 -8.6360265e-12 -6.754749e-13 -2.2301706e-12 0.5 -0.097053386 -1.2903975 -0.41143386 1.8011033e-11 6.3442276e-12 1.5244251e-11 1 10 0 
9.9789692 4.2984795 3.7470998 -8.6309096e-12 3.5309561e-12 2.9021179e-12 0.5 -1.6744058 2.0117178 1.0697919 9.3772062e-13 6.2231748e-12 -6.398589e-12 1 10 1 -8.0678605e-07 1.5349927e-06 3.2367686e-08 302 -1 11.2842 
13.573163 0.83925834 0.38138483 3.765291e-12 1.7976058e-12 1.0970527e-12 0.5 -0.93492781 1.7507997 -0.56964003 1.0264747e-11 -1.2717648e-11 1.2123174e-11 1 10 1 5.6295018e-05 -5.4091178e-05 -4.8659319e-05 109 -1 2000.0001 
4.1370948 3.7220614 3.7982254 3.3115184e-12 -1.4903444e-12 -6.4322496e-12 0.5 2.1705447 0.25866757 -0.28265004 5.1105189e-12 2.7225308e-11 -1.6601739e-11 1 10 0 
12.795202 1.7781782 2.2766004 5.5060205e-14 -2.3351838e-12 -7.9637747e-12 0.5 0.0034714823 1.2258828 -0.010619169 1.6821643e-11 3.9479743e-11 6.4189903e-12 1 10 1 1.0759278e-05 -3.6263061e-05 -4.9905608e-05 322 -1 2000.0001 
16.187846 8.3972221 0.20985921 1.1323981e-11 -2.1099473e-12 -4.3530947e-12 0.5 2.3563177 0.56957991 0.057016699 3.1293726e-12 1.1773302e-11 1.4971706e-11 1 10 3 -3.8439326e-05 -7.9110748e-06 -4.2882237e-05 130 -1 2000.0001 -7.6998893e-06 -1.836439e-05 -3.2425239e-05 254 -1 2000.0001 1.2023984e-05 6.6907409e-06 -1.9406946e-05 11 -1 2000.0001 
13.448485 3.1304362 1.7382669 9.3109225e-12 -8.0235806e-13 4.9448215e-12 0.5 1.8760035 1.8163558 0.40988389 -1.0825331e-12 -2.6566984e-11 3.0523429e-11 1 10 0 
10.884777 9.0203606 4.1776589 4.9107738e-12 -8.0383299e-12 1.2869177e-11 0.5 0.75143779 1.5719556 0.010119096 -1.4891341e-13 3.3773088e-11 5.3663228e-12 1 10 0 
17.520585 3.1123376 1.2720446 1.884942e-11 -4.2363735e-13 -4.2105502e-12 0.5 -1.3403843 1.5438009 0.1456028 1.5353673e-12 -3.5022647e-11 -3.0604549e-12 1 10 1 4.7903915e-07 -4.0662389e-07 7.8851323e-07 328 -1 2000.0001 
5.9686245 3.7847778 1.199595 -3.4900211e-12 -2.1622662e-12 9.0130684e-13 0.5 0.61741156 1.5854519 -1.0931343 4.9117214e-12 2.6971533e-12 5.7980056e-12 1 10 0 
1.9580833 6.769546 4.37209 4.7970017e-12 -4.436583e-12 4.9690967e-12 0.5 -1.7628163 0.93165915 0.84029487 2.9985922e-12 -1.9671347e-11 -5.3289823e-12 1 10 0 
13.501776 8.418867 2.0257218 7.4935781e-12 -6.3198837e-12 -2.4257469e-12 0.5 0.6342734 0.21137614 -0.8041688 8.7999642e-12 2.828936e-11 2.6531182e-11 1 10 1 1.7054788e-05 -2.0240879e-05 3.6274998e-05 312 -1 2000.0001 
9.6644379 4.6617909 1.1460017 -7.3878648e-12 -4.0333084e-12 3.1889678e-13 0.5 0.17856222 1.0389889 0.76047099 -5.1596159e-12 3.0752032e-11 2.0760654e-11 1 10 1 4.3355923e-06 2.3068189e-05 2.9305152e-05 337 -1 2000.0001 
14.172577 5.1593884 2.8471322 5.6536011e-12 7.7598322e-12 3.4064975e-12 0.5 -0.65883502 2.5573817 -0.86150989 3.4844969e-12 -1.0513388e-11 1.0169988e-11 1 10 0 
10.167062 9.2122952 3.3889184 3.3560519e-12 -7.8429321e-12 6.8971532e-12 0.5 1.0540028 1.2997406 -0.455921 2.348047e-12 1.0328386e-11 -1.1370089e-11 1 10 1 -9.4397082e-08 5.7365509e-08 8.4762516e-08 345 -1 16.5091 
17.133078 2.6558982 4.1786464 -2.4634037e-12 4.4665405e-12 -4.6165594e-12 0.5 -0.11581257 -0.62916193 0.80664978 -7.6516797e-12 -4.0398004e-12 -1.5645055e-11 1 10 0 
2.104219 5.9005708 3.899459 5.7452649e-12 -3.213222e-12 2.3769889e-12 0.5 -1.2095591 -0.94211802 -0.51137908 8.1174082e-12 2.8302244e-11 7.9923791e-12 1 10 2 -1.9771386e-06 6.6933765e-06 -1.2917707e-05 348 -1 2000.0001 -9.2152542e-06 -4.1945342e-06 -2.3700284e-05 301 -1 2000.0001 
0.56743744 3.5428985 4.1397633 2.6081963e-12 2.0056969e-12 -6.1645765e-12 0.5 -0.030321481 0.94884467 -0.30404824 2.4740721e-11 -8.8207062e-12 -2.1062712e-11 1 10 0 
2.6375323 5.911787 1.2727177 -4.4171837e-13 3.1768564e-12 -4.6416893e-14 0.5 0.13974436 1.3241594 0.028810448 -4.6770859e-12 -3.624201e-12 -2.975887e-11 1 10 0 
10.796878 3.3913334 4.0084088 3.6407281e-12 -1.7393051e-12 4.238102e-12 0.5 -0.30612351 0.51107688 -0.50211593 1.8161096e-11 -2.8654798e-12 -2.5574288e-11 1 10 1 2.4735433e-06 8.1310205e-06 1.2616392e-06 335 -1 2000.0001 
10.589523 2.5493576 0.97999218 8.7136827e-12 2.3118653e-12 2.8002389e-12 0.5 1.3075701 1.4200838 0.93683102 -8.5615385e-12 6.1362032e-12 -1.1888253e-11 1 10 1 -1.7675669e-07 2.9240376e-07 5.2170668e-08 292 -1 20.2152 
18.23323 7.7385324 3.8625049 1.4061772e-11 -2.002607e-11 -5.7171297e-12 0.5 0.98161804 0.42109292 1.3576476 6.3309704e-11 6.3923003e-12 -9.1126547e-12 1 10 0 