restart_version 2
name H10A12L0M0.5B0.5
xmin 0 xmax 20 ymin 0 ymax 10 zmin 0 zmax 12
dt 0.0001 t 25 tmax 500 save_count 10000
dim 3 gravity 0.20791169 0 -0.9781476
options_fstat 0 options_data 0 options_ene 1 options_restart 1
Species 1
k 200000 disp 25 kt 57142.857 dispt 25 mu 0.5 rho 1.9098593 dim_particle 3
Walls 1
numFiniteWalls 0 normal 0 0 -1 position 0
WallsPeriodic 2
normal 1 0 0 pos_left 0 pos_right 20 shift 20 0 0
normal 0 1 0 pos_left 0 pos_right 10 shift 0 10 0
Particles 2000
14.416162 8.5606639 3.0975015 -3.12315e-05 0.00019293287 0.00029898246 0.5 0.032352374 1.1689751 0.58168898 -0.00090451659 -0.0031375465 0.00034528391 1 10 0 
13.110921 1.5660726 4.3269917 -2.4339754e-05 8.8900063e-06 6.4085144e-06 0.5 0.0081648441 -0.83974261 0.19001509 9.6274518e-05 -5.9286311e-05 -1.8788903e-05 1 10 0 
18.935931 4.7975879 0.75907457 -1.395094e-05 1.0859513e-05 -2.7385852e-06 0.5 0.036985586 -1.7104452 -1.0301357 6.780385e-05 7.9305109e-06 -8.6695041e-05 1 10 0 
15.957899 5.7644246 2.994345 -5.4529947e-05 3.6522255e-05 -1.6802711e-05 0.5 -1.2108596 -1.8373244 0.053669128 8.1386228e-05 2.5394741e-05 -4.1421415e-05 1 10 0 
0.077193289 8.9057144 2.173956 -3.8849671e-05 2.7539973e-06 -2.4357653e-06 0.5 -0.54657192 -1.1193384 1.216245 -7.8541312e-05 -1.3029415e-05 -6.4271183e-05 1 10 0 
17.017672 7.3932375 4.2105716 -5.7143676e-05 -2.9626855e-06 -3.9015495e-05 0.5 1.0966769 -0.80238732 -0.59157754 5.3545127e-05 5.2481556e-05 -6.3887162e-05 1 10 0 
16.835362 7.8798138 5.3209509 -7.9900173e-05 2.6275565e-05 -2.0431421e-05 0.5 0.58617774 0.93507482 -0.57064215 2.6110982e-05 3.7213123e-06 -1.4794994e-05 1 10 0 
8.1826433 6.8793466 0.49998164 1.615695e-06 6.3752057e-06 -2.7713701e-07 0.5 -1.2850619 4.4227517 0.67535021 -9.4941303e-06 3.1629989e-06 -2.8963642e-05 1 10 1 1.1498823e-05 7.7356086e-06 0 -1 0 25 
19.683884 8.4000134 1.4061524 -2.9335126e-05 1.0625843e-05 -7.4282258e-06 0.5 -2.3034409 -1.43046 -1.1441868 3.5499384e-05 -5.7199707e-05 -2.9954204e-05 1 10 1 -2.7921722e-05 3.2252577e-05 -6.9396459e-06 4 -1 25 
19.82409 4.4181932 0.49987819 -1.672387e-05 -4.8813813e-06 -5.4412419e-06 0.5 0.58491539 1.9963335 -0.30641149 -1.8165685e-05 -2.9244715e-05 3.7444729e-05 1 10 2 6.1767358e-05 -0.00014974872 0 -1 0 25 3.7129158e-06 -1.3022083e-06 1.4628722e-05 2 -1 25 
11.199813 9.2324395 0.49995411 -1.5552501e-07 1.1010691e-06 1.1925763e-06 0.5 -0.4276651 3.6894703 1.1229827 3.8035117e-06 5.0201841e-06 -6.9523775e-06 1 10 1 -5.5050455e-06 -4.1490547e-05 0 -1 0 25 
10.200912 7.4135473 2.6546808 -1.4237607e-05 -9.8306076e-06 5.0685827e-06 0.5 0.44164738 -1.437614 -0.94377724 -8.1794126e-06 1.1472803e-07 0.00012495751 1 10 0 
11.624054 3.8817994 0.49993982 -2.0028774e-05 9.7682865e-06 1.9203235e-06 0.5 -0.23291082 1.7099227 0.63963724 -1.2453339e-05 -3.9224532e-05 -1.5774778e-05 1 10 1 4.8559993e-05 -6.1250968e-06 0 -1 0 25 
3.1774275 2.6467717 3.8464975 -4.7434703e-06 -8.430121e-05 -5.6304133e-05 0.5 0.95338231 1.0837268 -1.1211624 1.0209196e-05 -1.3644741e-05 7.4212462e-05 1 10 0 
12.244132 0.8652992 2.3701989 -2.7256671e-05 1.5770817e-05 1.1275754e-05 0.5 -1.0575339 0.89044631 0.48364137 -5.6784026e-05 -2.3713969e-05 -3.6962391e-06 1 10 0 
13.935733 7.0340797 0.4999861 -5.7821097e-06 8.3113473e-06 1.6170738e-06 0.5 -0.77046034 4.2196024 0.43855517 -5.429983e-06 1.0949359e-05 -3.2382318e-05 1 10 1 2.1796319e-05 -7.4973018e-06 0 -1 0 25 
9.8892884 3.9212225 4.4633741 -2.2964421e-05 -9.5989354e-06 -1.3254396e-05 0.5 1.798937 -0.11816594 -0.11260857 -1.1303423e-05 -4.6330347e-05 4.2244826e-05 1 10 0 
9.0895606 5.9928076 1.9815314 -1.4877039e-05 9.9871509e-06 -5.6549456e-06 0.5 0.45309574 0.24821635 -0.80293298 8.478158e-05 -9.3374069e-06 -2.0906903e-05 1 10 0 
9.1898461 5.0669284 1.4113969 -7.5758243e-06 6.6745617e-06 -1.2569954e-06 0.5 0.74864744 3.5532717 0.98474711 3.7185711e-05 -2.7671331e-05 -8.1592221e-05 1 10 1 -4.7772633e-06 -1.3281776e-06 -3.1367171e-07 17 -1 5.4138 
13.759948 3.5652439 3.5554834 -2.8909081e-05 2.215407e-05 -9.3671741e-06 0.5 -0.0034572413 -0.77675736 -1.1039766 8.8614009e-06 -1.4457162e-05 2.7928518e-05 1 10 0 
14.007754 7.6479859 3.1111808 7.4778127e-06 0.00012562003 4.3418712e-05 0.5 -0.54739791 -0.1282412 1.2368653 7.0638349e-05 -5.6274469e-05 -0.00014530109 1 10 1 8.6416383e-07 -7.5916558e-07 -2.4850734e-05 0 -1 25 
14.095857 1.0345129 1.3415036 -4.8835589e-05 2.2643864e-05 2.2602369e-05 0.5 -4.1215157 1.8772956 0.17708019 -0.00011099236 -0.00014307258 -0.00018128534 1 10 0 
4.3033313 5.1569091 2.9030456 -3.7486478e-05 -3.2545433e-05 -3.6506849e-05 0.5 0.50081347 -0.48716011 0.47510298 4.4943335e-05 4.6277314e-05 -5.6465311e-05 1 10 0 
4.2944822 4.4302787 3.5918914 -2.9290684e-05 -3.8987967e-05 -5.2157915e-05 0.5 1.4814712 -1.101844 0.91221906 -2.7811582e-05 3.0668248e-05 -2.3866059e-05 1 10 1 -1.0156067e-08 1.2685384e-07 1.3834775e-07 22 -1 14.8265 
0.98799639 8.5890266 4.0062233 -1.8489316e-05 -2.4595228e-06 -1.1343345e-05 0.5 -0.26765155 -0.4830215 0.96190771 -5.0491191e-05 6.2854387e-05 1.1889418e-05 1 10 0 
6.896935 4.4116711 3.1854464 -4.0438068e-06 -1.6618566e-05 -1.1084837e-05 0.5 -1.4852845 -1.5590234 -0.42927848 -6.3393513e-06 4.2872779e-05 -2.1341629e-05 1 10 0 
7.5577556 6.9723354 4.5352152 -2.7294465e-05 -3.8805009e-05 -2.6982397e-06 0.5 -0.26357215 0.4188469 0.784221 -1.2129522e-05 1.9798425e-05 8.4466425e-05 1 10 0 
3.3656499 9.6438989 1.9152958 -1.4016509e-05 -1.2756533e-05 -1.5440154e-05 0.5 -0.2175453 1.022088 -0.39528415 -2.5937979e-05 -4.6515719e-05 1.9205488e-05 1 10 0 
12.099284 3.1368916 4.4783874 -4.6703477e-06 2.3033509e-05 -1.0967286e-05 0.5 -0.33562257 0.26571331 -0.45967435 1.6331494e-05 -6.3135465e-05 9.7133982e-05 1 10 0 
17.760294 8.0649858 1.4050736 -2.9300724e-05 2.4055355e-05 1.3595115e-07 0.5 -2.0946818 -1.3333967 0.8109913 -2.284982e-05 2.50616e-05 -5.2099855e-05 1 10 0 
5.423997 8.9207835 3.9323615 -2.1966845e-05 -5.1275173e-05 -4.7293898e-05 0.5 0.43319716 -0.014773411 0.0045741635 3.7242701e-05 1.6497661e-05 -3.8710037e-05 1 10 0 
10.482339 8.8934195 1.8615731 -2.3450128e-05 5.8727194e-06 3.9429337e-06 0.5 -0.3997462 0.12360523 1.0933781 -8.9549958e-06 1.5441571e-05 -1.8563134e-05 1 10 0 
3.9017953 9.1723074 2.8812327 -4.0308778e-05 -1.8836728e-05 -2.4282729e-05 0.5 0.30225647 -1.1938722 0.10452141 1.4447211e-05 -5.5503789e-05 -5.4976965e-06 1 10 0 
0.67956143 7.0422424 2.8977489 -5.3132154e-05 -7.3411836e-06 -1.5808593e-05 0.5 0.055565448 2.9283407 0.62013563 4.8382701e-05 -5.5345315e-06 -2.0617074e-05 1 10 0 
19.038819 9.2417686 4.3658469 -7.0048357e-05 -1.0800842e-05 -2.9476497e-05 0.5 -1.4475164 0.66245 -0.70113676 -0.00012169249 -0.00013745244 -9.0108799e-06 1 10 0 
10.22021 1.5003079 3.0983729 1.1689227e-05 1.2183296e-05 6.3928749e-06 0.5 0.91492412 0.38468822 -1.1136909 -2.5747779e-05 4.4554466e-05 5.5132685e-05 1 10 0 
7.3470589 1.4323767 2.3043302 -1.9328972e-06 -1.038754e-05 -2.3208464e-05 0.5 -1.4075178 -0.43149923 0.19446899 4.3192734e-05 -4.8955251e-05 5.6010337e-05 1 10 0 
16.703421 4.9811603 4.3874535 -4.42174e-05 -1.5775051e-06 -3.2578332e-05 0.5 0.11613836 0.57853073 1.0286 9.7474052e-06 -5.6344337e-05 -4.0328324e-06 1 10 0 
13.577112 2.9483113 2.5376315 -3.3292262e-05 2.129317e-05 1.1715501e-05 0.5 0.28313223 -0.58537593 -0.072048196 -8.1902771e-05 1.5378894e-05 -8.2066769e-05 1 10 0 
16.369599 6.6374439 4.3039967 -6.8934325e-05 1.0558239e-06 -1.9996278e-05 0.5 -0.30799998 0.74610414 -1.4296799 -1.6056454e-05 3.4754618e-05 4.7301959e-06 1 10 1 2.0243962e-05 -2.0206786e-05 -2.3040882e-05 5 -1 25 
11.369211 1.3177313 2.1975361 -2.8034274e-05 5.9280899e-06 -5.333379e-06 0.5 0.50140034 0.29339921 0.23189224 -4.1513124e-05 3.7999251e-05 -4.6949065e-06 1 10 1 -9.83833e-07 -1.7836669e-06 3.115209e-07 14 -1 25 
17.438071 1.8422897 2.0673001 -5.8474044e-05 1.6134153e-05 1.0261827e-05 0.5 -2.7147756 1.0979476 -0.13577714 -8.6877858e-05 -6.2584055e-05 -4.6313391e-06 1 10 0 
3.1440876 6.6477767 4.9259526 -5.1167724e-05 -8.1640006e-05 -4.9570781e-05 0.5 0.59303232 0.25696672 -0.13798194 -4.3507619e-06 -1.5500265e-06 -3.5312413e-05 1 10 0 
0.80845834 0.13199804 4.6585757 -2.7898246e-05 -6.008014e-05 -3.4083062e-05 0.5 -0.9938427 -0.18870843 0.45310219 -7.1302227e-05 -7.3305028e-05 -4.041728e-06 1 10 0 
12.112696 2.0907645 0.49999114 -2.2377588e-06 1.3543472e-05 3.0187504e-06 0.5 -0.16630102 4.4118505 0.43661601 -1.8408839e-05 2.6027516e-06 -1.6148543e-07 1 10 1 7.2507228e-06 -9.6457091e-06 0 -1 0 25 
3.2341511 8.0617204 2.9452004 -4.9383503e-05 -1.9448936e-05 -3.016253e-05 0.5 -1.0885222 1.6187886 -0.1440428 -5.1219342e-05 -5.7656265e-05 5.74625e-06 1 10 0 
19.801287 3.458194 3.200349 -7.1768562e-05 -5.204771e-05 -2.0605997e-08 0.5 0.52436265 -0.25955396 -1.3804682 3.6354984e-05 -2.1224496e-05 7.3360175e-05 1 10 0 
11.674318 9.2008442 2.0746368 5.691903e-06 9.7097809e-06 -1.0391281e-05 0.5 1.1143781 0.44847082 -0.38310644 -1.762148e-05 4.9983562e-05 3.6373134e-05 1 10 0 
8.3057584 5.6149718 0.49979618 -5.5862909e-06 1.0170603e-05 -6.1079495e-07 0.5 -0.52491994 2.8976135 -0.70230877 -1.0470627e-05 -1.6969622e-05 -2.9206504e-05 1 10 1 0.00024187732 -0.00017696649 0 -1 0 25 
1.2891887 8.7583721 0.60572599 -1.5859786e-05 -1.1107365e-05 -2.2010445e-06 0.5 2.9426413 -3.3176124 -1.6326193 -7.9118191e-06 2.0550897e-05 -1.0723795e-05 1 10 0 
11.756141 5.505661 1.1910771 -2.8307982e-05 2.9845705e-05 -7.9289663e-06 0.5 0.80917261 -2.8851735 0.43515549 7.3822354e-07 -2.132496e-05 2.2193738e-05 1 10 0 
18.56298 9.6087894 0.49999516 -6.113422e-06 -3.4130274e-07 -2.4165623e-06 0.5 -0.10300314 -0.49927316 1.6577111 2.3894281e-06 2.9365116e-06 0.00010747089 1 10 1 1.6676266e-07 5.7951873e-08 0 -1 0 25 
19.308673 7.9364678 3.5863253 -7.8156184e-05 -1.8310019e-05 -3.8935548e-05 0.5 0.21350258 -0.84156377 0.084646142 -0.00017448253 -3.7091589e-05 0.0001067012 1 10 0 
19.512602 2.8364493 4.6469365 -4.7746284e-05 -4.5608005e-05 -2.94823e-05 0.5 1.1368175 1.0139698 1.3135196 5.057581e-05 1.0503107e-06 1.8162763e-05 1 10 0 
11.199781 1.0375058 5.1023428 -2.9741044e-05 1.5390491e-05 2.5270527e-05 0.5 0.73263387 1.4350386 0.027809859 5.6972663e-05 1.159084e-05 -5.804328e-05 1 10 0 
11.955961 7.3801945 2.0623773 2.5506289e-06 2.5320619e-05 1.853857e-05 0.5 -0.53525791 -0.0432197 0.5278201 -1.292162e-05 7.9982706e-05 0.00014299357 1 10 0 
13.511591 7.3421908 1.3514592 -1.3084612e-05 9.7359461e-06 9.1410508e-07 0.5 -1.0750993 -3.9423399 0.13908822 -4.7137732e-06 -9.68831e-06 7.2393557e-05 1 10 1 2.8024825e-05 2.2053471e-05 5.9797282e-06 15 -1 25 
16.382374 1.6715038 3.1141914 -4.203341e-05 4.985426e-05 -3.6685608e-05 0.5 0.20080973 1.1144996 -0.27997217 -3.1523865e-05 -6.5456855e-05 3.7856831e-05 1 10 0 
1.0227725 9.6643223 3.1962539 -3.6021453e-05 -1.2263232e-05 -1.7108302e-05 0.5 1.28559 -0.26751753 0.68570303 -4.5468693e-05 8.1039873e-06 -5.6302921e-06 1 10 0 
4.4979853 8.8558041 2.1434197 -2.1159676e-05 -2.0851338e-05 -7.5828824e-06 0.5 -0.41054078 -1.2998466 0.32429403 2.421772e-05 -2.2351646e-05 -5.6555864e-05 1 10 1 1.0067274e-06 5.4180485e-06 -1.5107203e-06 32 -1 25 
0.25569436 6.176525 1.3369329 -2.1805332e-05 -2.2937898e-05 -9.257975e-06 0.5 -0.45488594 -0.20170779 0.17135068 8.3151908e-05 -8.6006358e-06 -0.0001067509 1 10 0 
16.691615 4.0478859 2.479002 -2.7389832e-05 9.1203163e-06 2.7346815e-06 0.5 -0.086875098 0.94369077 -0.91597224 2.4147587e-05 -2.4458052e-05 -6.31634e-05 1 10 0 
15.531915 2.1674422 3.7066946 -4.5074741e-05 2.7292396e-05 2.9622834e-05 0.5 -0.1421749 -0.057309856 0.015986745 -6.0765936e-06 2.6810141e-05 1.5047857e-05 1 10 0 
9.2667858 5.8205046 3.5945468 -3.0784299e-05 1.2265676e-06 -3.1586293e-06 0.5 1.752167 0.33871008 -0.35296169 2.4639221e-05 -8.4900861e-06 -7.9625267e-06 1 10 0 
8.9191935 6.312805 0.86937348 1.8728329e-06 8.4990206e-06 -5.9510857e-06 0.5 2.7799419 -2.7271605 -0.33666664 -1.0862699e-05 2.721723e-05 1.9684437e-05 1 10 2 -4.8280113e-05 -1.0323616e-05 9.9629709e-05 48 -1 25 -2.1438373e-05 -2.6148024e-05 2.6435293e-06 7 -1 25 
6.9210764 0.0097791321 4.1590939 -6.7290579e-06 -4.629415e-05 -4.2666272e-05 0.5 0.50680798 -0.838646 -0.49871513 -2.459933e-06 -6.1542561e-05 6.9499131e-05 1 10 0 
11.991348 5.3438974 2.2325513 -1.9835089e-05 2.7166135e-05 -1.2592104e-05 0.5 -0.31777517 -0.95800831 -1.0475406 -2.8000079e-05 -6.238349e-05 1.9109399e-05 1 10 1 1.1066803e-06 -5.0190373e-07 -1.7927368e-07 50 -1 7.2195 
19.353151 1.5207951 2.22438 -4.3840721e-05 3.6042247e-06 -3.4374851e-05 0.5 1.2100864 -0.053199999 -1.1764663 4.7934355e-06 -4.6858497e-05 -8.4548792e-05 1 10 0 
10.957884 9.2882627 4.9169731 -9.0500869e-05 5.1653905e-05 -2.4568111e-06 0.5 1.3878645 0.12908765 -0.047922265 2.0844621e-05 8.0742219e-05 0.00016201253 1 10 0 
15.295999 6.1705589 2.1611163 -4.4244443e-05 2.4685739e-05 -1.0976585e-05 0.5 -0.70095406 -0.15516022 -0.47094526 -7.5098681e-06 4.6115023e-05 -3.0325681e-06 1 10 0 
4.9254363 2.4723647 2.1538141 1.7853884e-05 1.0389265e-05 1.3065002e-05 0.5 0.40871552 1.0936189 -0.75744843 0.00022002332 0.00012481141 -3.192189e-05 1 10 0 
19.473746 4.9536248 4.7825976 -8.7206522e-05 -3.6186503e-05 -3.5349392e-05 0.5 -0.057641576 -0.11002329 0.010259373 3.9413222e-05 -4.1953453e-05 -0.00012812848 1 10 0 
12.631477 6.7413153 2.4304522 2.3606508e-05 3.4084562e-05 -1.3357054e-05 0.5 1.3799746 -0.50779593 2.0504625 3.6377345e-05 7.0858199e-07 -0.00012086715 1 10 1 -7.3525876e-06 5.8951181e-07 1.4517203e-05 55 -1 25 
15.535669 8.5578694 2.1985317 -3.3632256e-05 -1.6875223e-05 1.8678799e-05 0.5 -0.01265084 -1.267441 0.32868533 3.2522134e-05 8.2678815e-05 1.9551231e-05 1 10 0 
13.267147 2.7902685 4.8298793 -2.6307308e-05 1.7783579e-05 3.9391649e-07 0.5 -0.093261302 -0.29766404 -0.33680902 -2.324569e-05 7.3583168e-05 -0.00012295855 1 10 1 -1.2844566e-05 2.2460739e-05 3.8690073e-05 28 -1 3.5548 
15.022561 0.69240533 1.1860118 -6.7928971e-05 -2.1126763e-05 5.3584783e-06 0.5 0.11904609 -1.7206187 1.2302672 1.7978945e-05 0.00021110736 9.0788693e-05 1 10 1 -4.0562232e-07 -8.6941932e-07 -5.0457485e-07 21 -1 25 
6.9479176 8.8859213 1.9699084 7.8628758e-05 4.521792e-05 1.5004246e-05 0.5 -1.409151 1.1778384 0.045879505 -3.8252848e-06 -6.8872146e-05 0.00028228353 1 10 0 
13.258812 2.8609395 1.5936952 -1.3672407e-05 1.4200313e-05 5.1367438e-06 0.5 1.8137053 1.6922065 0.48196865 2.7380263e-05 -6.4535488e-05 -4.6246452e-05 1 10 1 1.7009723e-05 -1.0650053e-05 -4.7499741e-06 38 -1 25 
13.305002 7.9449165 4.2016516 -2.9002862e-05 5.3335401e-05 -1.5531277e-05 0.5 -0.046915035 0.013355807 -0.13114179 0.00014823111 2.7130731e-06 8.3189928e-05 1 10 0 
7.4223615 7.071961 1.7820312 3.0095925e-06 -3.5562884e-06 2.7320645e-06 0.5 0.21415334 0.32245618 -0.15239586 -1.6589034e-06 -3.3219573e-05 -3.6444055e-05 1 10 0 
5.8829149 2.2414362 1.3388702 -6.9269834e-06 -2.4547626e-06 -8.1311235e-06 0.5 -1.0701259 -2.6369951 -0.29983487 -2.9241378e-05 -8.1893194e-06 3.6066328e-05 1 10 0 
5.081539 3.042891 1.3477008 -3.2112996e-06 2.5328803e-05 1.5456744e-05 0.5 0.35294625 0.76519426 0.3513273 -0.00016657344 -8.1747427e-05 3.4509926e-05 1 10 1 -7.8415298e-06 -1.3120886e-05 -1.0804802e-05 70 -1 25 
5.1896665 2.4733095 0.49999528 -6.2119009e-07 -8.697603e-06 -7.9123492e-07 0.5 -0.19617529 4.2041878 0.16448213 3.1606972e-06 9.127669e-06 -1.6345346e-05 1 10 1 5.9450239e-07 1.8820737e-07 0 -1 0 25 
8.8207287 7.8987895 0.49998693 4.3697771e-06 4.3926363e-06 1.6870894e-06 0.5 0.034324399 3.5406441 -1.0036295 -8.4093852e-06 9.1851438e-06 4.0987778e-05 1 10 1 1.3478853e-05 -1.5345886e-05 0 -1 0 25 
13.437746 9.6660946 4.4015746 -5.130118e-05 4.5184158e-05 8.7382422e-05 0.5 1.1121654 0.16418527 -0.19186539 -0.00027074476 0.00022334421 -0.00015944024 1 10 0 
5.0290668 9.2555675 4.7878315 -5.6726392e-05 -5.1212773e-05 -7.2732884e-05 0.5 0.55570541 0.61903513 -0.26906272 -2.6942115e-05 -0.00012055249 -3.4117428e-05 1 10 1 1.4457983e-05 -3.1379489e-05 1.8954777e-05 30 -1 25 
0.99901382 6.7177438 4.2958065 -5.6508823e-05 -5.3676812e-05 -3.5369689e-05 0.5 0.29412506 0.6301252 -0.044476147 9.0674621e-06 1.7256692e-05 -2.5572403e-05 1 10 0 
10.150409 0.59354107 3.5239052 -8.449988e-06 -1.8813906e-05 3.6144726e-06 0.5 0.9385215 0.21891495 -0.91900637 0.00010580412 -7.8563119e-06 -7.2683174e-05 1 10 1 -4.5664741e-07 -1.9120268e-07 -4.5111611e-07 35 -1 12.7559 
11.615518 6.2962381 2.3427295 -2.8356972e-05 4.4720762e-05 8.7566778e-06 0.5 2.3942289 2.0499233 1.442882 2.3230289e-05 1.5682615e-05 1.9167968e-05 1 10 1 -9.603749e-07 -3.6567756e-07 8.6325121e-08 66 -1 12.7769 
11.101753 7.6349451 3.0280811 -2.028057e-05 5.8814611e-05 -2.1117794e-05 0.5 -0.65822644 2.1092651 -0.24952389 0.00012804413 7.7458159e-05 7.3285024e-05 1 10 1 7.0801875e-06 -7.3586705e-06 -1.2718067e-05 11 -1 25 
14.360924 9.5418046 3.6723226 -7.1749226e-05 2.0035984e-05 5.4784449e-05 0.5 -0.44179604 0.089202927 0.76677515 -0.00011335052 6.4037975e-05 -0.00028498252 1 10 1 -2.09766e-06 1.8622095e-06 -2.927006e-06 0 -1 7.2688 
14.917009 2.0939068 2.8594939 -1.7367327e-05 2.6544212e-05 -2.6067357e-06 0.5 -0.20897516 0.043853273 0.29021946 -3.9106462e-05 1.0817962e-05 1.8549696e-05 1 10 1 -8.4336231e-07 -9.7687767e-07 5.2629643e-07 62 -1 5.8393 
15.030604 4.7600746 4.3855131 -5.3625219e-05 3.9851592e-05 -8.9042384e-06 0.5 -0.81949536 -0.39265091 -0.0074902972 -2.1784488e-05 -2.0118293e-05 6.0839749e-05 1 10 0 
19.475682 5.0760284 3.7901352 -7.5304705e-05 -2.6128816e-05 -3.123148e-05 0.5 -0.69010159 0.91483835 0.47718077 -2.501006e-05 2.4980759e-05 9.974586e-06 1 10 1 1.7761477e-05 -6.7879212e-06 -8.0252327e-07 71 -1 25 
18.629705 3.8696369 2.4877332 -3.9055007e-05 -9.1648016e-06 -2.2022919e-05 0.5 1.0372667 -1.0463708 -0.39663414 3.8874101e-05 -7.8027487e-05 -2.4588252e-05 1 10 0 
16.238269 2.7863407 1.3713918 -2.3286338e-05 -8.2061492e-06 -5.5925436e-06 0.5 -0.51515366 0.64767327 1.7243623 -1.0859839e-05 1.0701635e-05 6.778233e-05 1 10 0 
7.0987342 5.2660793 1.5808643 1.1999982e-05 -2.320326e-06 -2.0534837e-06 0.5 -2.5842376 2.5437131 0.26678801 -1.3838604e-05 7.4982244e-05 -1.2939329e-06 1 10 0 
7.3467577 3.1036337 3.0874288 5.8950074e-07 -2.6761579e-05 -3.769245e-05 0.5 -0.3101352 -0.50146409 -0.016750266 4.1877271e-05 -3.1338117e-05 1.5915107e-05 1 10 0 
18.579876 8.2750573 2.9911725 -7.7803303e-05 -4.6055101e-05 -4.2645983e-05 0.5 -0.089890074 -0.58549806 -0.73898398 0.00013713708 3.0470465e-05 -6.8193307e-05 1 10 1 -2.7184066e-07 1.101251e-07 3.9553552e-07 52 -1 25 
14.78561 3.7415888 3.3403752 -1.7357039e-05 2.8597848e-05 -3.328831e-05 0.5 1.4957257 0.87442748 0.11818526 1.4765881e-05 -1.2836632e-05 1.9679157e-05 1 10 1 -5.0536341e-07 -1.2020574e-06 -1.0396195e-05 19 -1 3.4268 
5.4445339 9.739077 1.9175285 -2.354839e-05 -3.6177215e-05 -3.5696953e-05 0.5 -0.15736155 1.7701601 1.1593212 3.9078557e-06 -4.2844438e-05 5.9322471e-05 1 10 0 
15.112394 6.2687697 4.255971 -6.4360508e-05 3.5131762e-05 -2.5209265e-05 0.5 -0.42857098 -1.4040691 -1.0648069 4.625502e-05 -6.8080012e-05 -3.717647e-06 1 10 0 
13.34648 4.4591437 1.6810603 -3.3471024e-05 2.0314084e-05 -1.6345559e-06 0.5 -1.1685514 -0.84270316 0.95503117 -4.7201413e-09 -6.1055286e-06 -5.1348678e-05 1 10 0 
5.1064438 9.1656251 1.1002967 -1.1401752e-06 -8.8914288e-06 3.8182342e-07 0.5 -0.97396857 -1.7009245 -0.37446113 -1.5119672e-05 -1.9414506e-05 -2.6500387e-06 1 10 1 -4.4461665e-07 4.834483e-07 -1.4468862e-07 100 -1 11.1554 
10.934694 8.2215551 0.4999798 8.0167834e-06 -4.49193e-06 -5.5114154e-07 0.5 -1.2231871 2.8811623 1.2342132 2.1827561e-06 -2.1835803e-06 -8.4460913e-06 1 10 1 2.1890537e-05 -2.6242079e-05 0 -1 0 25 
9.4818948 0.034486815 2.3561828 -1.9074055e-05 5.3129597e-07 7.1895498e-08 0.5 1.9576007 0.40810307 0.49923326 2.8833731e-05 3.7105322e-05 2.9431568e-05 1 10 0 
14.195869 3.7075736 2.3361091 -2.4810606e-05 1.0146113e-05 -2.0043378e-05 0.5 0.02066692 -0.27673215 0.69753034 4.9262052e-05 5.0391076e-05 4.1126344e-05 1 10 1 -8.2745205e-06 1.3754652e-05 2.6416242e-05 38 -1 25 
7.5012761 3.9321194 2.5492171 -5.1031573e-06 -1.1233647e-05 -1.6947237e-05 0.5 1.5423312 -0.59672636 -0.24445769 1.8902771e-05 -3.2351232e-05 2.8738399e-05 1 10 2 1.8232863e-06 2.8397205e-06 4.8947269e-06 97 -1 25 -3.0471298e-07 1.5036469e-07 -4.0277653e-07 25 -1 25 
13.107683 8.8500285 0.49999524 -3.749103e-06 9.9984739e-06 1.3783472e-06 0.5 0.27804185 2.0335623 -0.51800117 -1.5465208e-05 -1.0740146e-05 -1.2289737e-05 1 10 1 1.2332801e-07 2.2715696e-07 0 -1 0 25 
8.6576224 4.2147732 1.5631671 2.3709919e-06 2.157888e-06 -1.2507323e-05 0.5 -1.5441493 1.1955883 0.50253001 -1.5168471e-05 -5.5420411e-05 -6.3439284e-05 1 10 1 -4.2974551e-07 2.0423297e-07 -2.5668603e-07 18 -1 10.6406 
2.095747 5.654441 1.3860011 -3.4372017e-05 2.2043947e-06 -1.9957617e-05 0.5 -0.63348116 -1.7841415 -0.04535846 -6.4437661e-05 -1.9327881e-05 6.6997308e-05 1 10 0 
16.655327 6.4382314 1.2461612 -2.5835131e-05 -2.7356099e-06 -7.4464463e-06 0.5 -0.42101507 -1.8184673 -0.12843858 0.00014887405 -2.9551666e-05 -4.4840065e-05 1 10 0 
0.84053485 0.89750485 4.0160338 -1.7228511e-05 -6.3024862e-05 -3.6886717e-05 0.5 0.39962971 -1.9853038 0.072601812 6.1923462e-05 1.0590126e-05 3.8174281e-05 1 10 1 -6.2121983e-06 1.679795e-05 1.9702496e-05 43 -1 25 
2.4534155 3.8570425 4.0441395 -5.5307456e-05 -5.1672264e-05 -5.3880421e-05 0.5 -0.24434509 0.096356215 0.25960695 7.1065437e-05 3.2482072e-05 -3.8243354e-05 1 10 1 -6.2731906e-06 1.1424151e-05 3.3431884e-05 13 -1 3.1705 
9.3146862 3.4404602 2.6433381 -3.4352756e-05 3.4748423e-06 -7.3498086e-06 0.5 -1.1902566 -0.6031912 -0.75087775 1.3421872e-05 4.4482324e-06 1.1924923e-06 1 10 0 
0.0078524919 0.66473381 1.447713 -2.9702605e-05 -7.079084e-07 -6.9046301e-06 0.5 0.87683241 -2.6561419 -1.8493171 -5.7454562e-05 -4.3234706e-05 2.8558376e-05 1 10 0 
10.260818 6.3802166 0.49998931 6.3043926e-06 6.7253353e-06 3.9520295e-06 0.5 -0.83172255 5.6593135 -1.6882108 -8.2964251e-06 7.6070814e-06 3.4768881e-05 1 10 1 6.9999992e-06 5.2423835e-06 0 -1 0 25 
17.018025 3.3053591 0.86916705 -9.5755204e-06 -7.2613454e-06 9.8819705e-06 0.5 -1.3325519 0.46962022 -0.73575561 -1.3079314e-05 1.04752e-05 4.1519151e-05 1 10 0 
7.1181394 2.4350713 3.7950122 -6.3367556e-06 -2.7509031e-05 -3.978841e-05 0.5 0.11636745 1.2834638 0.42318954 -8.060478e-05 5.8523202e-06 6.0936873e-06 1 10 1 -1.4444113e-05 1.2280177e-05 6.9361105e-06 97 -1 25 
12.639802 8.1571468 2.190825 -7.969442e-06 5.1372947e-05 1.1195496e-05 0.5 -2.316507 -1.9195873 0.22074767 -2.1767152e-05 7.4923371e-05 0.00018704101 1 10 1 -1.5788565e-06 1.315512e-06 6.5357101e-08 55 -1 6.915 
11.002902 6.6038627 3.8823652 -3.835402e-05 1.6711986e-05 6.0384896e-06 0.5 1.2711156 0.35376619 -1.6080689 3.070558e-05 1.2756239e-05 -5.8045321e-05 1 10 1 4.4928964e-05 4.2063167e-05 3.4424946e-05 89 -1 2.5096 
6.7966878 0.059148546 0.49988117 3.7500126e-06 2.3487107e-06 -1.7693618e-06 0.5 -1.2852868 4.9000692 -0.50414122 1.9297983e-05 2.0406545e-05 -1.7234263e-05 1 10 1 0.00011101927 -7.2623049e-06 0 -1 0 25 
18.92711 4.3491217 4.2031156 -6.3106618e-05 -2.273936e-05 -1.9566567e-05 0.5 -0.074664982 1.0831715 -0.92538631 -3.2983608e-05 -4.6495681e-05 3.141369e-05 1 10 1 -3.6442667e-06 -1.409795e-05 -2.965525e-05 93 -1 25 
15.003006 2.9801472 3.9510426 -2.1232004e-05 5.4145939e-05 -1.0306274e-06 0.5 -0.30514585 -0.34706672 0.13421438 -0.00010329854 1.6027409e-05 -3.7540972e-05 1 10 2 -2.6719405e-05 -1.6156488e-05 -4.0992845e-06 62 -1 25 -1.3920911e-05 -4.0810934e-06 -1.3290364e-07 99 -1 25 
18.039868 6.4872318 2.0985838 -1.8101826e-05 5.1179233e-05 -6.1202445e-05 0.5 0.46758276 -0.58139346 -2.1803862 3.6630763e-05 0.00044256718 0.0004958678 1 10 0 
8.9609399 2.5978401 2.237332 9.041889e-06 -1.2131731e-05 -1.3385054e-05 0.5 0.96017495 0.42205817 0.035726689 -7.928343e-06 1.8311231e-05 0.00011725769 1 10 1 1.4111758e-06 2.8785769e-06 -7.2036979e-06 114 -1 25 
15.849543 7.0302996 1.2444988 -2.3050833e-05 1.2680131e-05 6.9470734e-06 0.5 0.76688896 0.73952125 -1.0995132 -9.089466e-06 -5.1812425e-05 1.445186e-05 1 10 1 3.4970955e-05 4.7350503e-05 -8.6806037e-05 111 -1 25 
3.0905605 0.42752169 4.1469186 -3.6535976e-05 -4.0412898e-05 -4.5219715e-05 0.5 -0.0359269 0.5054666 -0.34410633 5.2648514e-05 2.8258354e-05 -4.056079e-05 1 10 0 
17.236049 2.7338112 3.8021312 -4.3990636e-05 2.3774271e-05 4.5270227e-07 0.5 -0.31385829 -0.18923253 -1.5007196 2.4697609e-05 3.2090104e-06 2.84222e-05 1 10 1 2.8854712e-05 -2.4691464e-06 -8.410735e-06 57 -1 2.9788 
16.81086 9.6650544 1.2799955 -4.6424365e-05 -1.0566443e-05 -1.3246359e-06 0.5 -0.32982975 -2.7745141 -0.36074735 -4.4639558e-05 -4.0028027e-05 -0.0001905444 1 10 0 
12.443889 4.8396851 1.479909 -2.1884345e-05 4.1825287e-05 2.7710083e-06 0.5 1.6783534 0.02822604 0.60808746 -5.3162801e-05 2.5742925e-05 -9.2153722e-06 1 10 2 -1.2719137e-05 -1.2557705e-05 1.3309869e-06 50 -1 25 -6.6502995e-06 -1.5730432e-05 8.1630835e-08 102 -1 25 
10.111286 2.9471008 4.4215474 -1.3739806e-05 -5.7466074e-06 3.956677e-06 0.5 0.18857284 -1.1343223 -0.22189967 6.8294894e-06 3.1811739e-06 -1.8677413e-06 1 10 1 3.8927197e-05 8.216415e-06 1.5252542e-05 16 -1 25 
16.557371 0.14669127 4.3197133 -0.00011525967 4.3025849e-05 -1.01382e-05 0.5 -1.0382483 0.87478493 -1.1132622 1.5439244e-05 4.249073e-05 0.00015325968 1 10 0 
6.1528438 7.9820878 1.3736329 -4.1987895e-07 -1.6018138e-05 -8.2331352e-06 0.5 -1.2630423 -0.93260872 -0.71618295 -2.8845432e-05 -2.4908684e-05 -2.3059704e-05 1 10 0 
16.584717 1.3269877 2.1457824 -5.4318122e-05 -5.8481903e-06 -2.5302473e-05 0.5 0.63620734 0.53366329 0.13414459 6.330131e-05 -4.4056608e-05 5.283473e-05 1 10 1 1.5141023e-05 -2.6544879e-05 -9.6580196e-06 41 -1 25 
4.4914911 6.3466869 0.499919 -1.9285125e-05 -7.1686544e-06 7.0085571e-07 0.5 2.2083587 2.0889624 0.63014313 -7.0519976e-06 -3.2459762e-05 0.00010176408 1 10 1 1.4950894e-05 3.9530175e-05 0 -1 0 25 
4.1565213 3.3024402 1.6249702 -2.0268648e-05 -9.5201095e-06 -2.8979135e-05 0.5 -2.0110921 1.7662111 1.7655727 2.670661e-05 4.1349659e-05 7.3129294e-05 1 10 1 7.253436e-06 -2.2070885e-06 2.626473e-05 81 -1 25 
1.8840773 4.9450062 3.0087885 -0.0001334406 -0.00010296959 -0.00012554527 0.5 -0.49654232 0.10548904 0.23757626 -5.4918571e-05 -0.00028106109 0.00021283037 1 10 0 
8.8001422 8.1908383 4.1693174 -2.1916766e-05 2.8868313e-06 4.4355255e-07 0.5 -1.2409555 0.44486774 0.85705146 -8.1090927e-06 -1.072483e-05 -2.4914177e-06 1 10 1 -2.1723329e-05 -2.3613903e-05 -5.4551188e-05 26 -1 2.5062 
7.1115588 4.1480463 4.1291142 -9.0063796e-06 -3.3373938e-05 -2.2587657e-05 0.5 0.034141946 0.72911857 0.97473362 1.2096438e-06 -1.7442994e-05 2.0341486e-05 1 10 1 1.1961703e-07 -1.2721979e-07 -6.2474319e-08 25 -1 14.2577 
2.7528252 2.1481345 0.49999495 7.1946034e-06 -1.749591e-05 -4.3878333e-07 0.5 -0.91160877 2.0821304 0.52797167 4.0504446e-05 1.436114e-05 -5.7206571e-05 1 10 1 -9.5792784e-07 -6.3448055e-07 0 -1 0 25 
9.3084341 0.89490156 2.9337979 1.0861394e-05 9.9825913e-06 2.2821497e-05 0.5 -1.8968418 0.87174691 0.62785892 6.0299014e-05 5.8601451e-05 -0.00020030257 1 10 1 6.5796895e-08 2.7372196e-07 4.3845033e-08 87 -1 9.6359 
10.243268 3.0618129 0.4999773 9.7260246e-06 9.4238716e-06 -3.6800463e-06 0.5 -0.044868767 4.6854401 2.4597176 -2.4083413e-05 1.1795736e-05 -0.0001100546 1 10 1 2.5665749e-05 -1.0811852e-05 0 -1 0 25 
12.571402 3.1543268 2.2580592 -2.1402171e-05 1.9868607e-05 -6.0990429e-06 0.5 -0.95846091 -0.32465158 0.9568141 8.2869157e-06 4.7055081e-06 -4.8130361e-05 1 10 1 1.8946654e-06 2.5474351e-07 1.8478941e-06 77 -1 25 
14.397074 2.7901774 1.9719221 -1.1351942e-05 1.7884569e-05 -9.4422474e-06 0.5 -0.97757197 -0.49002 -1.1691478 3.4496201e-05 2.3476312e-05 6.0881103e-06 1 10 1 -4.7345725e-07 -2.975907e-07 4.9808158e-07 106 -1 13.0962 
10.335777 4.1466239 3.5974423 -2.0201876e-05 6.9835698e-06 -1.0066688e-05 0.5 0.049497821 -0.19441665 -0.1924849 6.3585438e-06 3.2189462e-05 2.040848e-05 1 10 1 -3.7567558e-07 -1.3933888e-06 -5.5640243e-07 16 -1 25 
7.5832417 9.4574174 0.63846125 3.0720495e-06 2.1161411e-06 -1.8140484e-05 0.5 -0.9576508 -3.271591 -2.0428941 6.7289166e-06 -1.9331054e-05 1.7897916e-05 1 10 1 -1.0518396e-06 -6.4181681e-08 5.6913546e-06 121 -1 25 
5.3306203 8.2107639 4.8911604 -3.44599e-05 -6.2978899e-05 -7.3070199e-05 0.5 0.76013423 -0.20401455 0.11908541 -9.1713804e-05 9.4202979e-05 -8.4383223e-05 1 10 1 3.9430424e-06 4.098969e-05 2.3208346e-05 30 -1 2.9276 
2.6076117 1.2941105 4.2722079 -9.4674571e-06 -2.6423494e-05 -3.4319838e-05 0.5 -0.85609433 0.34902878 0.15666252 -9.1253382e-05 0.00011665661 6.8635639e-06 1 10 1 3.7668055e-06 3.8260372e-06 -1.1943769e-05 127 -1 25 
11.43448 4.4092033 1.3280906 -1.4577755e-05 2.2324767e-05 -2.1203736e-06 0.5 0.541749 -0.81437541 0.52380778 -4.9936677e-06 4.7108123e-06 -5.8169319e-05 1 10 1 -3.4276819e-05 -2.8263021e-06 -6.0464652e-06 12 -1 25 
12.644031 9.031639 2.6757844 -2.6219603e-05 5.8033452e-05 7.9341719e-06 0.5 1.3320849 -0.56296165 -0.69661715 -2.8785346e-06 4.3034893e-05 -8.1305813e-05 1 10 1 3.8409752e-05 1.6349245e-05 -2.9816368e-05 119 -1 25 
19.204201 5.9334557 3.0387994 -1.158684e-05 -6.8125462e-05 1.9434139e-05 0.5 0.8866046 0.83246986 -0.50189639 0.00054529049 0.00035577332 -9.7102709e-05 1 10 0 
4.6758778 5.7021662 2.1521189 -3.3684522e-05 4.9717824e-06 -7.7597596e-06 0.5 0.12318289 0.48634117 0.11114395 9.1581894e-05 2.0573971e-05 -1.2453273e-05 1 10 1 6.4714985e-07 2.1113382e-06 1.8541302e-06 22 -1 25 
17.432174 9.9251741 3.8789511 -2.8774227e-05 2.9837502e-05 -8.5055191e-06 0.5 0.38573576 -2.9758111 0.58731516 0.00014304784 2.9193945e-05 -0.00011045299 1 10 1 -3.2227403e-08 -3.2973386e-07 9.7978022e-08 132 -1 10.7463 
4.8660348 4.0553592 1.3562013 5.4294578e-06 -3.4676776e-05 -1.4965017e-05 0.5 0.37977632 -0.83035102 -0.92240964 -7.0941466e-06 1.4740243e-05 -2.4796001e-05 1 10 1 1.5487613e-08 -8.8431732e-08 -6.3700452e-07 81 -1 8.0802 
0.97768579 5.4531535 3.1167068 -7.3736125e-05 -7.1094189e-05 -2.4839563e-05 0.5 -0.38190709 1.1172812 -0.7038833 -2.9126099e-05 -5.9950731e-06 5.8748125e-05 1 10 1 -4.2563776e-07 -6.7597803e-07 1.4787805e-06 137 -1 9.4111 