restart_version 2
name H10A26L1M0.5B0.5
xmin 0 xmax 20 ymin 0 ymax 10 zmin 0 zmax 12
dt 0.0001 t 3000 tmax 3000 save_count 500000
dim 3 gravity 0.43837115 0 -0.89879405
options_fstat 1 options_data 1 options_ene 1 options_restart 2
Species 1
k 200000 disp 25 kt 57142.857 dispt 25 mu 0.5 rho 1.9098593 dim_particle 3
Walls 1
numFiniteWalls 0 normal 0 0 -1 position 1.7
WallsPeriodic 2
normal 1 0 0 pos_left 0 pos_right 20 shift 20 0 0
normal 0 1 0 pos_left 0 pos_right 10 shift 0 10 0
Particles 2297
19.009111 4.8417808 -0.24896328 0 0 0 0.5 0 0 0 0 0 0 0 0 0 
13.809875 3.8942946 -0.77727674 0 0 0 0.5 0 0 0 0 0 0 0 0 0 
5.5517794 4.1547456 -0.60352524 0 0 0 0.5 0 0 0 0 0 0 0 0 0 
19.793224 5.1188403 -0.80355794 0 0 0 0.5 0 0 0 0 0 0 0 0 0 
19.562519 3.9031682 -0.23169893 0 0 0 0.5 0 0 0 0 0 0 0 0 0 
5.5608621 8.5263255 -0.21591956 0 0 0 0.5 0 0 0 0 0 0 0 0 0 
16.216912 5.9096365 -0.94775575 0 0 0 0.5 0 0 0 0 0 0 0 0 0 
14.535995 1.3065091 -0.069504715 0 0 0 0.5 0 0 0 0 0 0 0 0 0 
10.180456 7.2100042 -0.13700305 0 0 0 0.5 0 0 0 0 0 0 0 0 0 
3.4213265 6.7272246 -0.9188929 0 0 0 0.5 0 0 0 0 0 0 0 0 0 
3.3419722 2.8388734 -0.0996109 0 0 0 0.5 0 0 0 0 0 0 0 0 0 
15.373979 8.2385974 -0.34907666 0 0 0 0.5 0 0 0 0 0 0 0 0 0 
13.366573 9.7331215 -0.68717884 0 0 0 0.5 0 0 0 0 0 0 0 0 0 
11.207025 8.5918603 -0.76360889 0 0 0 0.5 0 0 0 0 0 0 0 0 0 
8.2165963 0.46823794 -0.13294856 0 0 0 0.5 0 0 0 0 0 0 0 0 0 
6.5299107 8.2835176 -0.19079525 0 0 0 0.5 0 0 0 0 0 0 0 0 0 
0.86458764 9.2433128 -0.59922823 0 0 0 0.5 0 0 0 0 0 0 0 0 0 
10.713295 9.4613958 -0.75805734 0 0 0 0.5 0 0 0 0 0 0 0 0 0 
8.7004028 7.4688873 -0.93043963 0 0 0 0.5 0 0 0 0 0 0 0 0 0 
7.5161234 9.8634998 -0.72147491 0 0 0 0.5 0 0 0 0 0 0 0 0 0 
13.587682 7.9436759 -0.42840972 0 0 0 0.5 0 0 0 0 0 0 0 0 0 
13.050273 2.1455358 -0.97289164 0 0 0 0.5 0 0 0 0 0 0 0 0 0 
8.7042912 8.669545 -0.84591614 0 0 0 0.5 0 0 0 0 0 0 0 0 0 
4.0434174 5.1137429 -1.0795114 0 0 0 0.5 0 0 0 0 0 0 0 0 0 
15.034013 0.85012465 -1.0586053 0 0 0 0.5 0 0 0 0 0 0 0 0 0 
0.86477113 8.0376244 -0.074527267 0 0 0 0.5 0 0 0 0 0 0 0 0 0 
17.180207 6.1067788 -1.1379577 0 0 0 0.5 0 0 0 0 0 0 0 0 0 
14.394899 7.3729518 -0.27871791 0 0 0 0.5 0 0 0 0 0 0 0 0 0 
17.922673 9.0670322 -0.38226483 0 0 0 0.5 0 0 0 0 0 0 0 0 0 
17.203509 1.5843527 -0.027708017 0 0 0 0.5 0 0 0 0 0 0 0 0 0 
12.35488 1.3357783 -0.22259602 0 0 0 0.5 0 0 0 0 0 0 0 0 0 
6.1655943 2.3575759 -0.12202931 0 0 0 0.5 0 0 0 0 0 0 0 0 0 
12.377884 7.4172294 -0.65933582 0 0 0 0.5 0 0 0 0 0 0 0 0 0 
17.962699 6.5334116 -0.68620729 0 0 0 0.5 0 0 0 0 0 0 0 0 0 
9.3432018 3.5294701 -1.1646462 0 0 0 0.5 0 0 0 0 0 0 0 0 0 
8.6906382 5.733786 -0.36031688 0 0 0 0.5 0 0 0 0 0 0 0 0 0 
15.23775 2.0185073 -0.091852866 0 0 0 0.5 0 0 0 0 0 0 0 0 0 
5.3752315 7.0747017 -1.1499832 0 0 0 0.5 0 0 0 0 0 0 0 0 0 
16.006577 0.66205248 -0.92957761 0 0 0 0.5 0 0 0 0 0 0 0 0 0 
18.475197 8.2294174 -0.96486423 0 0 0 0.5 0 0 0 0 0 0 0 0 0 
19.919947 7.4659504 -0.20442716 0 0 0 0.5 0 0 0 0 0 0 0 0 0 
2.342195 1.7441596 -0.71910607 0 0 0 0.5 0 0 0 0 0 0 0 0 0 
19.253163 6.7515727 -0.60950458 0 0 0 0.5 0 0 0 0 0 0 0 0 0 
17.493503 4.2681537 -0.87991606 0 0 0 0.5 0 0 0 0 0 0 0 0 0 
15.8384 3.7774915 -0.65913478 0 0 0 0.5 0 0 0 0 0 0 0 0 0 
2.0273445 5.5240874 -0.52752289 0 0 0 0.5 0 0 0 0 0 0 0 0 0 
10.686115 5.2016106 -0.65733811 0 0 0 0.5 0 0 0 0 0 0 0 0 0 
10.785596 6.7386788 -0.77820048 0 0 0 0.5 0 0 0 0 0 0 0 0 0 
11.849683 9.8831502 -0.95314257 0 0 0 0.5 0 0 0 0 0 0 0 0 0 
15.451556 0.91051781 -0.13621381 0 0 0 0.5 0 0 0 0 0 0 0 0 0 
9.4465386 8.1303989 -0.44788299 0 0 0 0.5 0 0 0 0 0 0 0 0 0 
19.262952 4.3220281 -1.0887397 0 0 0 0.5 0 0 0 0 0 0 0 0 0 
10.726644 4.2531919 -0.96534243 0 0 0 0.5 0 0 0 0 0 0 0 0 0 
11.977115 5.3940067 -0.070761633 0 0 0 0.5 0 0 0 0 0 0 0 0 0 
13.542211 5.6509871 -0.82072957 0 0 0 0.5 0 0 0 0 0 0 0 0 0 
16.657673 3.2474461 -0.4438944 0 0 0 0.5 0 0 0 0 0 0 0 0 0 
15.698811 9.4236005 -1.0615255 0 0 0 0.5 0 0 0 0 0 0 0 0 0 
3.7463121 4.4269857 -0.33212855 0 0 0 0.5 0 0 0 0 0 0 0 0 0 
18.23843 2.6060774 -0.98050539 0 0 0 0.5 0 0 0 0 0 0 0 0 0 
11.307652 1.2270559 -0.55097732 0 0 0 0.5 0 0 0 0 0 0 0 0 0 
2.3773977 3.0964075 -0.14511647 0 0 0 0.5 0 0 0 0 0 0 0 0 0 
14.078287 2.1328165 -0.39593164 0 0 0 0.5 0 0 0 0 0 0 0 0 0 
3.2136923 8.5267475 -1.0285615 0 0 0 0.5 0 0 0 0 0 0 0 0 0 
2.0860745 4.3955698 -0.61222044 0 0 0 0.5 0 0 0 0 0 0 0 0 0 
6.6759583 5.2530526 -1.0472473 0 0 0 0.5 0 0 0 0 0 0 0 0 0 
3.807029 3.4785563 -0.7107748 0 0 0 0.5 0 0 0 0 0 0 0 0 0 
3.9638174 1.7237435 -1.1963257 0 0 0 0.5 0 0 0 0 0 0 0 0 0 
14.685747 2.923417 -0.32909857 0 0 0 0.5 0 0 0 0 0 0 0 0 0 
6.2783478 0.74822589 -0.94968541 0 0 0 0.5 0 0 0 0 0 0 0 0 0 
12.722576 6.2893502 -0.82881499 0 0 0 0.5 0 0 0 0 0 0 0 0 0 
15.858122 4.5839436 -0.068857227 0 0 0 0.5 0 0 0 0 0 0 0 0 0 
16.204105 1.5643737 -0.057756086 0 0 0 0.5 0 0 0 0 0 0 0 0 0 
15.379371 5.5159415 -0.50377614 0 0 0 0.5 0 0 0 0 0 0 0 0 0 
19.885893 2.9869625 -0.4682071 0 0 0 0.5 0 0 0 0 0 0 0 0 0 
2.9199337 5.4148103 -0.089286885 0 0 0 0.5 0 0 0 0 0 0 0 0 0 
7.9995177 2.3729312 -0.80904133 0 0 0 0.5 0 0 0 0 0 0 0 0 0 
16.285707 9.8705079 -0.38684707 0 0 0 0.5 0 0 0 0 0 0 0 0 0 
12.606495 3.10355 -0.94182118 0 0 0 0.5 0 0 0 0 0 0 0 0 0 
2.5427352 8.8098715 -0.33829678 0 0 0 0.5 0 0 0 0 0 0 0 0 0 
6.5418086 6.239308 -0.95520006 0 0 0 0.5 0 0 0 0 0 0 0 0 0 
19.03017 8.0943427 -0.012825477 0 0 0 0.5 0 0 0 0 0 0 0 0 0 
4.8094911 1.6361197 -0.67030192 0 0 0 0.5 0 0 0 0 0 0 0 0 0 
6.3877807 6.5383442 -0.01421026 0 0 0 0.5 0 0 0 0 0 0 0 0 0 
2.9826389 4.7894361 -0.86657134 0 0 0 0.5 0 0 0 0 0 0 0 0 0 
15.674281 2.9138526 -0.18313358 0 0 0 0.5 0 0 0 0 0 0 0 0 0 
8.016558 0.81725012 -1.0481706 0 0 0 0.5 0 0 0 0 0 0 0 0 0 
17.526857 8.5097465 -1.1118304 0 0 0 0.5 0 0 0 0 0 0 0 0 0 
19.479126 8.980321 -1.1126276 0 0 0 0.5 0 0 0 0 0 0 0 0 0 
12.906965 3.4157794 -0.01387747 0 0 0 0.5 0 0 0 0 0 0 0 0 0 
16.644033 1.4305923 -0.9813659 0 0 0 0.5 0 0 0 0 0 0 0 0 0 
15.227851 6.4511085 -0.8248633 0 0 0 0.5 0 0 0 0 0 0 0 0 0 
10.068634 3.7124299 -0.44237591 0 0 0 0.5 0 0 0 0 0 0 0 0 0 
12.111332 1.8167349 -1.0645461 0 0 0 0.5 0 0 0 0 0 0 0 0 0 
12.125374 8.9358606 -1.1466727 0 0 0 0.5 0 0 0 0 0 0 0 0 0 
0.56843207 6.1583162 -0.46847598 0 0 0 0.5 0 0 0 0 0 0 0 0 0 
8.4472159 9.5424026 -0.43162218 0 0 0 0.5 0 0 0 0 0 0 0 0 0 
9.2806436 4.2647729 -0.17270534 0 0 0 0.5 0 0 0 0 0 0 0 0 0 
7.433225 6.5474761 -0.62745654 0 0 0 0.5 0 0 0 0 0 0 0 0 0 
2.7003551 7.4213448 -0.90509146 0 0 0 0.5 0 0 0 0 0 0 0 0 0 
3.877457 7.3991914 -0.3368745 0 0 0 0.5 0 0 0 0 0 0 0 0 0 
16.25361 8.5664806 -1.0036354 0 0 0 0.5 0 0 0 0 0 0 0 0 0 
10.885512 3.2315155 -0.78553355 0 0 0 0.5 0 0 0 0 0 0 0 0 0 
4.8604514 8.9667624 -0.77637125 0 0 0 0.5 0 0 0 0 0 0 0 0 0 
1.2465552 4.8471685 -0.3110723 0 0 0 0.5 0 0 0 0 0 0 0 0 0 
7.4890991 4.1681512 -0.51500002 0 0 0 0.5 0 0 0 0 0 0 0 0 0 
4.9346967 5.5886811 -0.36039019 0 0 0 0.5 0 0 0 0 0 0 0 0 0 
17.294514 2.1738152 -0.82961741 0 0 0 0.5 0 0 0 0 0 0 0 0 0 
7.8531362 1.4925318 -0.31919036 0 0 0 0.5 0 0 0 0 0 0 0 0 0 
1.5627766 0.33919323 -0.027086105 0 0 0 0.5 0 0 0 0 0 0 0 0 0 
13.327844 1.3339096 -0.45229982 0 0 0 0.5 0 0 0 0 0 0 0 0 0 
0.6343571 0.28208565 -0.6140689 0 0 0 0.5 0 0 0 0 0 0 0 0 0 
14.445885 8.1580543 -0.89614085 0 0 0 0.5 0 0 0 0 0 0 0 0 0 
12.491315 9.6940632 -0.20540035 0 0 0 0.5 0 0 0 0 0 0 0 0 0 
12.415041 4.0848002 -0.57083123 0 0 0 0.5 0 0 0 0 0 0 0 0 0 
6.0476218 8.1983363 -1.1307176 0 0 0 0.5 0 0 0 0 0 0 0 0 0 
11.560564 9.3214263 -0.17832873 0 0 0 0.5 0 0 0 0 0 0 0 0 0 
8.2709264 6.9393082 -0.18273948 0 0 0 0.5 0 0 0 0 0 0 0 0 0 
12.953661 8.8070241 -0.20382154 0 0 0 0.5 0 0 0 0 0 0 0 0 0 
4.7717724 4.6182226 -0.18319728 0 0 0 0.5 0 0 0 0 0 0 0 0 0 
0.36285793 2.1698766 -0.14519381 0 0 0 0.5 0 0 0 0 0 0 0 0 0 
12.079914 8.3232819 -0.35630486 0 0 0 0.5 0 0 0 0 0 0 0 0 0 
6.2560987 9.8959989 -0.42838322 0 0 0 0.5 0 0 0 0 0 0 0 0 0 
5.117345 4.9190456 -1.0794489 0 0 0 0.5 0 0 0 0 0 0 0 0 0 
4.1405226 8.2729363 -0.74613048 0 0 0 0.5 0 0 0 0 0 0 0 0 0 
8.8094226 2.9138803 -0.58546474 0 0 0 0.5 0 0 0 0 0 0 0 0 0 
2.2751943 7.8742245 -0.10910272 0 0 0 0.5 0 0 0 0 0 0 0 0 0 
2.597946 0.147621 -0.41623468 0 0 0 0.5 0 0 0 0 0 0 0 0 0 
16.025254 6.5826909 -0.23429334 0 0 0 0.5 0 0 0 0 0 0 0 0 0 
13.921 6.5379633 -0.5574743 0 0 0 0.5 0 0 0 0 0 0 0 0 0 
18.91744 9.0484824 -0.28850422 0 0 0 0.5 0 0 0 0 0 0 0 0 0 
16.929401 8.1309846 -0.40574897 0 0 0 0.5 0 0 0 0 0 0 0 0 0 
17.287152 0.43131726 -1.1706751 0 0 0 0.5 0 0 0 0 0 0 0 0 0 
11.336312 2.2614734 -0.49939533 0 0 0 0.5 0 0 0 0 0 0 0 0 0 
11.617731 3.8277934 -1.11557 0 0 0 0.5 0 0 0 0 0 0 0 0 0 
14.418507 5.7076311 -0.30382398 0 0 0 0.5 0 0 0 0 0 0 0 0 0 
15.164172 0.005445807 -0.44925852 0 0 0 0.5 0 0 0 0 0 0 0 0 0 
3.2989929 1.9133165 -0.47416818 0 0 0 0.5 0 0 0 0 0 0 0 0 0 
14.277931 0.46003025 -0.53404659 0 0 0 0.5 0 0 0 0 0 0 0 0 0 
19.27942 5.8054427 -0.28964289 0 0 0 0.5 0 0 0 0 0 0 0 0 0 
0.84262412 2.8481724 -0.72969108 0 0 0 0.5 0 0 0 0 0 0 0 0 0 
13.645244 8.8050604 -0.93340789 0 0 0 0.5 0 0 0 0 0 0 0 0 0 
4.8662668 7.2695631 -0.27942524 0 0 0 0.5 0 0 0 0 0 0 0 0 0 
18.252317 0.16970319 -1.1461501 0 0 0 0.5 0 0 0 0 0 0 0 0 0 
3.2480064 8.1405895 -0.1070686 0 0 0 0.5 0 0 0 0 0 0 0 0 0 
6.9334793 5.7169189 -0.1991115 0 0 0 0.5 0 0 0 0 0 0 0 0 0 
17.335081 5.2469068 -0.46137838 0 0 0 0.5 0 0 0 0 0 0 0 0 0 
9.7427933 4.4392223 -1.0489089 0 0 0 0.5 0 0 0 0 0 0 0 0 0 
3.4443472 0.0830641 -0.94325748 0 0 0 0.5 0 0 0 0 0 0 0 0 0 
8.8558537 5.0608679 -1.0800503 0 0 0 0.5 0 0 0 0 0 0 0 0 0 
4.3581449 9.3606582 -0.0072419503 0 0 0 0.5 0 0 0 0 0 0 0 0 0 
18.117479 1.8718076 -0.31334073 0 0 0 0.5 0 0 0 0 0 0 0 0 0 
12.827132 8.2362032 -1.0149486 0 0 0 0.5 0 0 0 0 0 0 0 0 0 
17.610715 7.5488467 -0.84947348 0 0 0 0.5 0 0 0 0 0 0 0 0 0 
6.7796359 1.5953694 -0.33215435 0 0 0 0.5 0 0 0 0 0 0 0 0 0 
13.184498 4.6947769 -0.38117149 0 0 0 0.5 0 0 0 0 0 0 0 0 0 
9.2810078 9.0757373 -0.13793328 0 0 0 0.5 0 0 0 0 0 0 0 0 0 
18.926347 3.229394 -0.60901686 0 0 0 0.5 0 0 0 0 0 0 0 0 0 
7.8781477 3.2597185 -0.36328948 0 0 0 0.5 0 0 0 0 0 0 0 0 0 
16.267657 5.4955597 -0.039678228 0 0 0 0.5 0 0 0 0 0 0 0 0 0 
19.695924 6.0416353 -1.1752986 0 0 0 0.5 0 0 0 0 0 0 0 0 0 
2.0811106 3.4924957 -1.1796004 0 0 0 0.5 0 0 0 0 0 0 0 0 0 
0.45915163 7.8590657 -0.97064978 0 0 0 0.5 0 0 0 0 0 0 0 0 0 
1.3440318 1.7106588 -0.66786596 0 0 0 0.5 0 0 0 0 0 0 0 0 0 
1.7063369 7.5136515 -0.84841031 0 0 0 0.5 0 0 0 0 0 0 0 0 0 
7.038762 2.5287422 -0.57891221 0 0 0 0.5 0 0 0 0 0 0 0 0 0 
9.497371 1.1758425 -1.0518835 0 0 0 0.5 0 0 0 0 0 0 0 0 0 
17.528238 9.9830457 -0.30996725 0 0 0 0.5 0 0 0 0 0 0 0 0 0 
12.30525 2.4114986 -0.28402419 0 0 0 0.5 0 0 0 0 0 0 0 0 0 
2.2605901 8.2737039 -1.183421 0 0 0 0.5 0 0 0 0 0 0 0 0 0 
19.07566 0.72125769 -1.019394 0 0 0 0.5 0 0 0 0 0 0 0 0 0 
5.6739735 5.7501732 -1.0830391 0 0 0 0.5 0 0 0 0 0 0 0 0 0 
18.943942 1.3160191 -0.22672956 0 0 0 0.5 0 0 0 0 0 0 0 0 0 
8.6664773 1.7197362 -1.1646146 0 0 0 0.5 0 0 0 0 0 0 0 0 0 
10.486734 1.0801093 -1.1575256 0 0 0 0.5 0 0 0 0 0 0 0 0 0 
4.1341739 6.0500347 -0.74332122 0 0 0 0.5 0 0 0 0 0 0 0 0 0 
8.0379321 4.9766875 -0.30191055 0 0 0 0.5 0 0 0 0 0 0 0 0 0 
12.925419 5.7088482 -0.036078303 0 0 0 0.5 0 0 0 0 0 0 0 0 0 
11.8479 0.4773031 -0.14924897 0 0 0 0.5 0 0 0 0 0 0 0 0 0 
1.5735762 8.741936 -0.10467021 0 0 0 0.5 0 0 0 0 0 0 0 0 0 
7.748735 8.9164064 -0.99511962 0 0 0 0.5 0 0 0 0 0 0 0 0 0 
10.873215 0.35311098 -0.33543571 0 0 0 0.5 0 0 0 0 0 0 0 0 0 
8.3394361 6.4011831 -1.0221561 0 0 0 0.5 0 0 0 0 0 0 0 0 0 
1.4062252 6.131712 -1.0395699 0 0 0 0.5 0 0 0 0 0 0 0 0 0 
3.958402 5.3597255 -0.041282368 0 0 0 0.5 0 0 0 0 0 0 0 0 0 
19.392966 9.8667961 -0.60930126 0 0 0 0.5 0 0 0 0 0 0 0 0 0 
7.7097786 7.4935787 -0.79672245 0 0 0 0.5 0 0 0 0 0 0 0 0 0 
16.834173 0.70330748 -0.32212776 0 0 0 0.5 0 0 0 0 0 0 0 0 0 
4.1792906 2.3876319 -0.47448372 0 0 0 0.5 0 0 0 0 0 0 0 0 0 
5.7737697 3.132453 -0.61911983 0 0 0 0.5 0 0 0 0 0 0 0 0 0 
1.2598145 4.1394057 -1.1130933 0 0 0 0.5 0 0 0 0 0 0 0 0 0 
14.135291 9.5845665 -0.065830801 0 0 0 0.5 0 0 0 0 0 0 0 0 0 
1.2872433 8.4193596 -1.0079498 0 0 0 0.5 0 0 0 0 0 0 0 0 0 
5.8163897 5.0852707 -0.35097137 0 0 0 0.5 0 0 0 0 0 0 0 0 0 
10.066018 0.20782103 -0.91029153 0 0 0 0.5 0 0 0 0 0 0 0 0 0 
7.2353001 0.70796927 -0.26583382 0 0 0 0.5 0 0 0 0 0 0 0 0 0 
17.946824 0.91675358 -0.5555375 0 0 0 0.5 0 0 0 0 0 0 0 0 0 
18.518722 0.10548389 -0.18461275 0 0 0 0.5 0 0 0 0 0 0 0 0 0 
17.392493 3.1279607 -1.1110233 0 0 0 0.5 0 0 0 0 0 0 0 0 0 
12.563831 5.3033912 -0.87559375 0 0 0 0.5 0 0 0 0 0 0 0 0 0 
3.0301454 0.98830741 -0.74094925 0 0 0 0.5 0 0 0 0 0 0 0 0 0 
14.789656 9.0848375 -0.63307291 0 0 0 0.5 0 0 0 0 0 0 0 0 0 
0.76591659 5.3533583 -1.0268598 0 0 0 0.5 0 0 0 0 0 0 0 0 0 
9.3937127 2.0603226 -0.5689336 0 0 0 0.5 0 0 0 0 0 0 0 0 0 
16.465276 4.9422347 -0.84868413 0 0 0 0.5 0 0 0 0 0 0 0 0 0 
3.2049107 5.7541726 -1.0165892 0 0 0 0.5 0 0 0 0 0 0 0 0 0 
10.965378 3.893968 -0.039018533 0 0 0 0.5 0 0 0 0 0 0 0 0 0 
11.666086 6.9629197 -1.1930219 0 0 0 0.5 0 0 0 0 0 0 0 0 0 
0.16217955 6.9048891 -0.99581323 0 0 0 0.5 0 0 0 0 0 0 0 0 0 
7.0438615 8.1992023 -1.044164 0 0 0 0.5 0 0 0 0 0 0 0 0 0 
10.22837 8.768928 -0.22497042 0 0 0 0.5 0 0 0 0 0 0 0 0 0 
2.5235672 6.3840667 -0.64383278 0 0 0 0.5 0 0 0 0 0 0 0 0 0 
17.948715 3.2709741 -0.29235671 0 0 0 0.5 0 0 0 0 0 0 0 0 0 
18.320792 5.5542837 -0.41667255 0 0 0 0.5 0 0 0 0 0 0 0 0 0 
16.318669 2.3361522 -0.68313016 0 0 0 0.5 0 0 0 0 0 0 0 0 0 
5.8269404 9.1562384 -0.94701943 0 0 0 0.5 0 0 0 0 0 0 0 0 0 
5.2784129 9.7364165 -0.29297998 0 0 0 0.5 0 0 0 0 0 0 0 0 0 
2.7050339 9.4301296 -1.1047836 0 0 0 0.5 0 0 0 0 0 0 0 0 0 
15.511659 4.6563616 -1.0040712 0 0 0 0.5 0 0 0 0 0 0 0 0 0 
13.248043 7.3385539 -1.1474735 0 0 0 0.5 0 0 0 0 0 0 0 0 0 
19.36412 2.1439434 -0.59764931 0 0 0 0.5 0 0 0 0 0 0 0 0 0 
6.7482243 3.4535243 -0.33759622 0 0 0 0.5 0 0 0 0 0 0 0 0 0 
4.3838663 6.9504711 -1.094259 0 0 0 0.5 0 0 0 0 0 0 0 0 0 
8.4605474 4.0067042 -0.68255122 0 0 0 0.5 0 0 0 0 0 0 0 0 0 
0.93076264 7.0880598 -0.38378408 0 0 0 0.5 0 0 0 0 0 0 0 0 0 
10.440604 7.9496268 -0.75697933 0 0 0 0.5 0 0 0 0 0 0 0 0 0 
13.540837 2.9432128 -0.62547644 0 0 0 0.5 0 0 0 0 0 0 0 0 0 
4.4306496 4.1937646 -1.0212237 0 0 0 0.5 0 0 0 0 0 0 0 0 0 
5.4653239 6.4358523 -0.38625242 0 0 0 0.5 0 0 0 0 0 0 0 0 0 
9.690216 7.3341231 -1.0002723 0 0 0 0.5 0 0 0 0 0 0 0 0 0 
5.812852 7.5665159 -0.39362428 0 0 0 0.5 0 0 0 0 0 0 0 0 0 
0.10451742 8.6179187 -0.42204849 0 0 0 0.5 0 0 0 0 0 0 0 0 0 
5.5944429 2.1988375 -0.92728717 0 0 0 0.5 0 0 0 0 0 0 0 0 0 
11.837768 3.2951193 -0.29868729 0 0 0 0.5 0 0 0 0 0 0 0 0 0 
2.9234914 3.8731159 -0.45856675 0 0 0 0.5 0 0 0 0 0 0 0 0 0 
16.104458 7.6345956 -0.67342419 0 0 0 0.5 0 0 0 0 0 0 0 0 0 
2.8106655 2.6562659 -0.9316452 0 0 0 0.5 0 0 0 0 0 0 0 0 0 
9.1199055 0.35958886 -0.61551899 0 0 0 0.5 0 0 0 0 0 0 0 0 0 
5.7994732 1.3997075 -0.36158056 0 0 0 0.5 0 0 0 0 0 0 0 0 0 
10.071134 0.96251063 -0.2550641 0 0 0 0.5 0 0 0 0 0 0 0 0 0 
19.77684 0.74200996 -0.30601069 0 0 0 0.5 0 0 0 0 0 0 0 0 0 
14.165331 1.3402031 -0.99790401 0 0 0 0.5 0 0 0 0 0 0 0 0 0 
1.8070193 2.5893485 -0.79039818 0 0 0 0.5 0 0 0 0 0 0 0 0 0 
1.667264 6.4145293 -0.11714092 0 0 0 0.5 0 0 0 0 0 0 0 0 0 
0.32089931 4.271173 -0.79581161 0 0 0 0.5 0 0 0 0 0 0 0 0 0 
7.6143991 5.5888244 -0.96911458 0 0 0 0.5 0 0 0 0 0 0 0 0 0 
5.105805 2.5567007 -0.13212177 0 0 0 0.5 0 0 0 0 0 0 0 0 0 
16.825686 6.9435971 -0.72005987 0 0 0 0.5 0 0 0 0 0 0 0 0 0 
18.501394 9.2019981 -1.1951819 0 0 0 0.5 0 0 0 0 0 0 0 0 0 
0.15661435 9.6300393 -0.0090132672 0 0 0 0.5 0 0 0 0 0 0 0 0 0 
1.7970379 9.6005612 -0.65794258 0 0 0 0.5 0 0 0 0 0 0 0 0 0 
15.15484 7.4498569 -0.92301676 0 0 0 0.5 0 0 0 0 0 0 0 0 0 
5.0872521 8.0042546 -0.92427146 0 0 0 0.5 0 0 0 0 0 0 0 0 0 
10.029751 9.7300495 -0.032750693 0 0 0 0.5 0 0 0 0 0 0 0 0 0 
4.5002078 9.95578 -0.88127416 0 0 0 0.5 0 0 0 0 0 0 0 0 0 
15.633092 9.170716 -0.096482398 0 0 0 0.5 0 0 0 0 0 0 0 0 0 
13.094183 6.9327498 -0.15762933 0 0 0 0.5 0 0 0 0 0 0 0 0 0 
11.33655 7.5936095 -0.49098156 0 0 0 0.5 0 0 0 0 0 0 0 0 0 
8.8249086 1.258198 -0.29165699 0 0 0 0.5 0 0 0 0 0 0 0 0 0 
0.54589657 3.6227789 -0.06862893 0 0 0 0.5 0 0 0 0 0 0 0 0 0 
18.530708 1.5478274 -1.1646706 0 0 0 0.5 0 0 0 0 0 0 0 0 0 
14.924125 3.9545618 -0.29560731 0 0 0 0.5 0 0 0 0 0 0 0 0 0 
8.4615171 8.0164423 -0.12897922 0 0 0 0.5 0 0 0 0 0 0 0 0 0 
16.952689 9.1588918 -0.60545627 0 0 0 0.5 0 0 0 0 0 0 0 0 0 
14.184071 4.7397171 -0.39659702 0 0 0 0.5 0 0 0 0 0 0 0 0 0 
6.517793 4.4025096 -0.54960416 0 0 0 0.5 0 0 0 0 0 0 0 0 0 
18.483001 7.3538512 -0.40243172 0 0 0 0.5 0 0 0 0 0 0 0 0 0 
10.121178 6.0214348 -0.57315551 0 0 0 0.5 0 0 0 0 0 0 0 0 0 
6.7851115 7.3461154 -0.44894394 0 0 0 0.5 0 0 0 0 0 0 0 0 0 
3.4574059 6.2560466 -0.037426403 0 0 0 0.5 0 0 0 0 0 0 0 0 0 
12.743312 0.52200261 -0.70797936 0 0 0 0.5 0 0 0 0 0 0 0 0 0 
7.3845213 1.5752532 -1.1980784 0 0 0 0.5 0 0 0 0 0 0 0 0 0 
9.5500273 5.206742 -0.37220347 0 0 0 0.5 0 0 0 0 0 0 0 0 0 
9.259225 9.4738246 -1.0573646 0 0 0 0.5 0 0 0 0 0 0 0 0 0 
4.1386055 0.8708894 -0.70379195 0 0 0 0.5 0 0 0 0 0 0 0 0 0 
11.470166 6.0192048 -0.66367077 0 0 0 0.5 0 0 0 0 0 0 0 0 0 
11.536141 4.5912983 -0.47192676 0 0 0 0.5 0 0 0 0 0 0 0 0 0 
1.9592696 0.81195279 -0.81414268 0 0 0 0.5 0 0 0 0 0 0 0 0 0 
9.9822382 2.8121173 -0.86619136 0 0 0 0.5 0 0 0 0 0 0 0 0 0 
10.403064 1.9331225 -0.64340374 0 0 0 0.5 0 0 0 0 0 0 0 0 0 
14.870177 2.2061334 -1.0022641 0 0 0 0.5 0 0 0 0 0 0 0 0 0 
15.664 1.6086803 -0.89802714 0 0 0 0.5 0 0 0 0 0 0 0 0 0 
1.5062852 3.5411477 -0.35196296 0 0 0 0.5 0 0 0 0 0 0 0 0 0 
5.110032 0.68772283 -0.55147198 0 0 0 0.5 0 0 0 0 0 0 0 0 0 
6.8037688 9.1216611 -0.74176189 0 0 0 0.5 0 0 0 0 0 0 0 0 0 
0.40602202 1.3778394 -0.75348021 0 0 0 0.5 0 0 0 0 0 0 0 0 0 
3.4344672 9.2598245 -0.37631743 0 0 0 0.5 0 0 0 0 0 0 0 0 0 
19.458073 8.0010551 -0.91160224 0 0 0 0.5 0 0 0 0 0 0 0 0 0 
16.776673 4.206989 -0.18577169 0 0 0 0.5 0 0 0 0 0 0 0 0 0 
9.2536151 6.5121729 -0.63667318 0 0 0 0.5 0 0 0 0 0 0 0 0 0 
18.430869 4.0971512 -0.5822226 0 0 0 0.5 0 0 0 0 0 0 0 0 0 
17.909879 8.1138038 -0.080108903 0 0 0 0.5 0 0 0 0 0 0 0 0 0 
15.306545 3.0912459 -1.1598374 0 0 0 0.5 0 0 0 0 0 0 0 0 0 
10.546115 2.6954085 -0.012695634 0 0 0 0.5 0 0 0 0 0 0 0 0 0 
17.020294 6.1441482 -0.15184553 0 0 0 0.5 0 0 0 0 0 0 0 0 0 
7.3075666 3.4315435 -1.1656661 0 0 0 0.5 0 0 0 0 0 0 0 0 0 
4.7948421 3.3179784 -0.70085971 0 0 0 0.5 0 0 0 0 0 0 0 0 0 
12.076644 6.6176439 -0.14008962 0 0 0 0.5 0 0 0 0 0 0 0 0 0 
5.809499 2.7084509 7.7508455 3.0000684 -0.091139501 -0.42483481 0.5 29.384001 504.39082 6.8129988 -0.47558517 -1.1500834 0.35933916 1 10 1 -5.5865476e-06 1.9285491e-06 4.7080149e-07 144 -1 1293.2113 
0.96413875 8.4865861 1.291736 0.39042569 0.28988106 -0.036645245 0.5 -19.974442 436.96242 2.0402063 -0.42479846 0.3839393 0.67200921 1 10 1 1.5478627e-05 5.5211895e-06 9.4246583e-06 80 -1 2990.577 
18.784095 2.752311 7.3340482 2.6537651 0.35089725 0.20104848 0.5 -13.344495 512.68306 18.798091 0.39681629 -0.14653226 -0.28591413 1 10 1 -7.0067483e-07 -1.5384602e-05 1.9322207e-05 297 -1 2970.4133 
18.63202 9.1882715 2.6714872 0.49061189 0.076212279 0.31595228 0.5 -3.1870616 550.18562 -5.6709033 -0.18217265 -1.0102511 0.83430231 1 10 1 7.0914787e-07 8.1333732e-06 8.9945947e-07 252 -1 2810.5098 
12.677488 5.7364874 8.3395703 2.7513817 0.18137708 0.21956895 0.5 -8.3517751 481.6519 -24.541192 -0.28797582 0.035084585 0.063325455 1 10 1 2.6038581e-05 1.8741413e-05 -1.691194e-05 299 -1 2536.2079 
7.1891451 1.022467 1.1823213 0.46474337 0.39432036 -0.14527504 0.5 12.380654 563.36235 9.6539935 -0.87332553 -1.2015667 -0.093503714 1 10 1 9.0926639e-05 -2.9415483e-05 -3.5901911e-05 300 -1 2898.7468 
8.6528566 9.8377568 8.5434565 2.7361708 -0.081148738 0.39022853 0.5 -21.141744 529.16258 6.4996153 0.056985535 0.25431938 0.00070435059 1 10 1 1.1207316e-06 1.4325004e-05 -5.1463591e-06 301 -1 2722.0749 
19.335934 6.554136 8.9944893 3.1390002 -0.43248261 -0.013440272 0.5 -32.711606 510.85751 45.772598 0.34654684 0.53374585 0.23917148 1 10 1 2.075016e-06 4.2351796e-06 -9.1654132e-06 301 -1 2975.7455 
3.4817961 9.3364334 4.8605405 1.5448587 -0.27550589 -0.40377448 0.5 -15.872608 540.82118 8.4559729 -0.43331392 1.7593528 0.8134789 1 10 1 5.2696327e-06 4.5610116e-07 -1.4696279e-06 299 -1 2619.665 
13.034381 9.1934839 5.7426319 1.807626 -0.034080083 -0.13666027 0.5 -15.785999 497.84594 -33.531725 -0.81208905 -0.65871837 0.13954323 1 10 1 -3.2514025e-06 2.7517846e-07 -8.3532369e-12 305 -1 2941.6293 
19.359971 6.8083574 1.8348155 0.73418338 0.099501175 -0.13632376 0.5 -17.140663 505.47224 5.492737 0.01726216 -0.016768376 0.46849307 1 10 1 2.5105666e-05 5.5521127e-06 -8.5979242e-06 305 -1 2913.2116 
11.148204 6.8586234 0.16008736 -0.0039989856 -0.1007551 -0.16144693 0.5 32.624864 425.07801 -1.7225666 -0.16211298 0.088065203 0.17032684 1 10 1 -0.0001356774 -0.00021777532 -0.0002850945 256 -1 3000 
18.233937 0.52483313 9.1704462 3.1833603 0.034636876 -0.084882257 0.5 24.084764 569.14952 11.242087 0.85264275 -0.65502211 -0.8396678 1 10 1 5.9040908e-07 -1.3663887e-06 -8.7357346e-07 301 -1 2931.26 
9.518573 1.710058 2.6367486 0.6243663 0.42448693 0.11720358 0.5 12.541125 485.01077 15.052769 -0.65584426 -0.15774464 0.11874425 1 10 1 -2.447614e-06 -5.0337639e-07 1.8334005e-06 305 -1 2848.5921 
11.388281 0.35119102 4.0735912 1.7062341 -0.13123777 -0.0059575409 0.5 -10.106926 491.34741 5.0918188 -0.58590347 -0.98917698 0.23136716 1 10 1 -5.1058487e-06 -2.4354637e-05 3.4536808e-06 15 -1 2796.2204 
4.0702982 7.0205237 0.70037368 0.024068088 0.11315963 -0.20183054 0.5 19.602264 495.9807 -0.087027532 0.41539175 -0.38391225 -0.15134739 1 10 1 1.5546566e-06 -1.2829885e-06 -6.2257215e-07 99 -1 2998.5046 
9.4005521 0.22924914 1.3195817 0.38736091 0.094066185 0.015957789 0.5 19.930859 449.95102 -21.109126 -0.20188282 0.32368177 -0.51040651 1 10 1 2.6507054e-06 -4.1567147e-06 -4.0299794e-07 14 -1 2995.4727 
15.351986 0.51980674 8.8137889 2.6255399 -0.027981934 0.043972536 0.5 -19.868349 531.88061 -10.266387 0.11423644 0.77211757 0.15747252 1 10 1 -9.0612113e-06 -7.842754e-06 1.9383635e-05 303 -1 2979.5859 
0.31368788 2.8884277 5.7836481 1.8214598 -0.0093674911 -0.30607911 0.5 12.642637 434.05195 -40.134189 -0.20204638 -0.60274087 -0.034552329 1 10 1 -3.7573391e-05 -9.9276849e-06 2.4599776e-05 304 -1 2929.6744 
8.7112825 9.7979323 0.50201072 0.044391779 0.14279952 0.099791117 0.5 -2.6711134 542.06916 -7.9382666 0.078946647 -0.27364174 0.20974705 1 10 1 1.630546e-05 1.2457356e-05 -7.9840716e-06 95 -1 2999.9775 
18.599002 4.6919159 1.1157246 0.22622757 0.12741365 0.036413454 0.5 -11.659674 465.62817 -16.178898 0.63037952 -0.27752925 -1.0195734 1 10 1 1.2217876e-05 1.3112e-05 1.1416763e-05 308 -1 2961.7118 
9.5865962 2.9805633 0.040418045 -0.04309597 0.039291221 0.0047075932 0.5 12.613268 447.27414 8.7803101 0.17828518 0.094110278 -0.24833465 1 10 1 -6.2917521e-06 -2.3986003e-06 8.0800739e-06 124 -1 2999.9879 
9.8642064 9.3266442 8.7486502 2.541347 -0.22890583 0.33460341 0.5 1.834375 495.8225 4.0194938 0.38289251 0.63514979 0.49768444 1 10 1 -2.0395537e-05 -2.0922636e-05 2.8152281e-05 303 -1 2992.7449 
3.3987361 8.498432 6.4535494 1.9758883 -0.28338578 0.072975317 0.5 -3.6728177 537.47136 -0.84270079 -0.44756518 0.069402472 -0.74805824 1 10 1 -6.2094268e-06 -1.6894291e-05 1.0371939e-05 300 -1 2945.1746 
3.4029139 2.0868971 4.8584234 1.6460306 -0.16757263 -0.36867527 0.5 35.642802 401.61575 -6.6349161 0.66861498 -0.86488415 -0.65548232 1 10 1 -1.7156168e-05 -5.6539219e-07 1.0613132e-05 303 -1 2853.8582 
9.8601399 8.0754849 6.0337703 2.0302416 -0.074800719 -0.078255737 0.5 24.516851 443.21433 -9.7459399 -0.008785094 0.099538614 0.20824834 1 10 1 -1.3970667e-05 -8.803959e-06 5.4498629e-06 320 -1 2794.7101 
17.67677 0.59810253 1.4945383 0.091068507 0.12013147 -0.044079996 0.5 -37.874224 438.41777 -21.341794 -0.16463928 -0.92512007 0.13247197 1 10 1 4.9977678e-06 1.1113496e-05 9.4296746e-06 310 -1 2963.9571 
4.4916732 5.8518558 7.285965 2.2707604 -0.15146849 0.07278274 0.5 2.2649849 452.38933 19.416619 0.072052267 0.015722949 -0.38053542 1 10 1 1.0158944e-05 3.2955486e-05 2.9111331e-05 301 -1 2952.5014 
9.6834335 5.124793 5.2717379 1.7468662 0.27037005 -0.40587202 0.5 28.386089 503.06522 13.88566 0.11890908 -0.082433617 -0.25798618 1 10 1 5.5894625e-06 -7.8684842e-06 1.5447662e-06 307 -1 2948.4365 
11.201451 1.0447337 7.6975383 2.4658037 -0.028339982 -0.16957323 0.5 -4.9361318 502.93387 37.583573 0.14623225 0.45629544 0.81511272 1 10 1 5.8587699e-06 -9.792506e-07 -3.8476372e-06 303 -1 2862.258 
10.943849 3.6054919 6.9833878 2.341515 0.015191755 0.17570303 0.5 15.682002 468.43556 30.140822 0.10061094 0.57238147 0.55656874 1 10 1 3.170383e-07 1.538629e-06 -5.1779386e-06 321 -1 2974.4658 
8.8081073 4.29783 7.5945763 2.5089789 -0.0044220885 0.20456067 0.5 -4.2678562 454.16879 17.684341 -0.24230015 0.37937871 -0.070708236 1 10 1 7.0298312e-06 5.3407213e-06 -2.4844726e-05 326 -1 2887.3372 
19.098524 6.0703195 2.4613029 0.57375851 0.1610039 0.22847256 0.5 23.508948 511.48165 37.899882 0.50705489 1.2891873 0.16064694 1 10 1 4.280862e-06 -4.5908829e-06 -3.6127543e-06 307 -1 2999.9782 
12.374296 4.0221662 6.2293311 2.3633853 -0.079950768 0.15533004 0.5 6.1422829 486.30976 -43.275107 0.2775913 -0.19105428 -0.54965227 1 10 1 6.066922e-05 3.9612859e-06 -2.0558566e-05 319 -1 2818.0776 
15.879478 8.3364905 2.1341879 0.61864877 0.13290467 -0.079092074 0.5 20.708659 491.78003 -7.5268427 -0.095564288 0.33206777 -0.68098255 1 10 1 -8.924775e-06 -1.0655121e-05 2.3195464e-06 300 -1 2975.112 
11.495847 8.3641245 5.9259835 1.8754723 0.14922646 0.17619324 0.5 -1.8947884 484.29238 -63.744689 -0.75399244 1.2552753 -0.31967436 1 10 1 7.3275497e-06 -1.5640677e-05 5.0327637e-06 311 -1 2840.1002 
4.280637 9.8434702 3.0987042 0.97173747 -0.058309375 0.545948 0.5 30.031272 493.90552 28.138591 0.29753898 0.22366568 -0.72985497 1 10 1 -1.8917496e-06 -2.2424209e-06 9.8274247e-06 300 -1 2980.961 
4.5394085 5.7513431 2.6565604 0.99369412 -0.052002251 -0.19580295 0.5 37.927023 516.53767 -23.222381 -0.26040268 1.4618634 0.5227418 1 10 1 -1.3487526e-05 -7.1124145e-06 -1.3954986e-06 332 -1 2962.2591 
14.51448 1.7524815 1.6164635 0.50819886 -0.016997803 0.06535792 0.5 23.920849 459.79682 39.77971 0.61322614 0.13422036 0.2069285 1 10 1 2.9996518e-06 -3.0585723e-07 -1.8643595e-06 153 -1 2976.3968 
18.122179 9.147697 0.62886406 0.20169339 0.11630286 -0.031177396 0.5 -17.593246 519.16756 2.4319733 -0.71845565 -0.034921549 0.0065371649 1 10 1 -5.2306968e-06 -6.4620754e-06 4.939175e-07 28 -1 2999.3714 
1.168751 1.6367956 3.5149511 1.2938156 -0.71072569 0.51376358 0.5 -23.484277 485.14132 53.100633 -0.084713852 0.38500008 -0.99519757 1 10 1 9.7195879e-06 -3.2987358e-06 -7.0080115e-06 331 -1 2930.6848 
12.198467 2.675793 1.0980979 0.31724582 -0.082298113 0.1206174 0.5 36.328868 445.63066 17.247304 0.69346867 -0.48587471 0.40775257 1 10 1 7.3176229e-06 -1.6600898e-05 -6.2573377e-06 292 -1 2995.3874 
14.65672 7.4082079 0.69574765 0.070310616 -0.0087780197 0.17199164 0.5 7.8959643 415.82474 -19.146922 -0.097639135 0.20493745 0.21431073 1 10 1 6.4643354e-06 3.313392e-07 -1.6880063e-06 27 -1 2999.5889 
19.51047 5.4229335 3.2639952 0.75484683 -0.032678317 0.0023910045 0.5 -21.957872 517.40591 27.994916 -0.039730437 -1.4372786 -0.53714387 1 10 1 -1.3146704e-06 -2.3112805e-06 -1.7415139e-06 329 -1 2999.4645 
7.743175 0.3120946 0.74093725 0.27132014 0.0010206806 0.081425719 0.5 36.271385 524.2342 25.666072 -0.17085857 -0.24879376 0.37643967 1 10 1 -2.4094377e-05 -1.5741966e-05 -5.4642124e-06 302 -1 2999.9808 
10.702337 2.4264987 0.93780549 0.76854002 0.12069431 -0.12215297 0.5 -21.003619 475.26342 15.327347 0.036225806 0.80239035 1.4970675 1 10 1 6.9438196e-06 -4.3663242e-07 -1.1494552e-06 292 -1 2999.9791 
19.372108 5.4304354 4.7175372 1.4093672 0.057818252 0.24139288 0.5 -29.427053 452.31275 -10.196892 -0.30803715 -0.50240107 -0.055673251 1 10 1 -1.6484168e-06 -8.345207e-07 7.9148463e-07 324 -1 2933.3342 
2.8790615 5.7101267 1.8759294 0.35787684 0.091270731 0.012680596 0.5 -5.4549123 489.34093 -6.1951232 -0.13896163 0.2035001 0.75165698 1 10 1 -1.1951561e-05 -1.6245757e-06 4.4063822e-06 334 -1 2996.754 
4.337185 1.2274231 2.0663811 0.39746725 -0.055956942 0.20456815 0.5 7.5143869 553.3162 19.104408 1.232614 0.18470759 -0.092152891 1 10 1 -1.2233095e-05 1.8714699e-05 4.6896884e-06 322 -1 2946.204 
6.1480012 2.8163539 2.9572855 0.8455639 -0.17260106 -0.20856284 0.5 9.0484461 499.4362 -14.966187 -0.25390056 0.24871091 -0.70673407 1 10 1 -8.119537e-06 5.6480332e-06 8.4925893e-06 338 -1 2959.333 
7.8067422 3.5541557 2.6760872 0.98076185 0.0040950143 0.048795356 0.5 22.54979 472.38491 -30.751348 -0.67363627 1.1152695 -0.16797405 1 10 1 -1.3888839e-06 1.4526829e-05 -5.2384322e-06 346 -1 2965.71 
12.951596 7.8069607 4.7779228 1.6905894 0.21074201 0.22758858 0.5 -9.4137668 433.29539 41.433596 -0.30489043 0.36401285 -1.0491652 1 10 1 5.8343412e-05 -1.141979e-05 -2.7392113e-05 306 -1 2945.9884 
2.0013779 6.3127949 6.1699984 2.0811199 -0.041361002 -0.46808957 0.5 43.091448 480.7942 -13.39996 -0.2089996 -0.69348497 -0.55636797 1 10 1 -5.8014168e-07 1.8427181e-06 7.1175384e-08 324 -1 2987.6179 
2.9222932 9.2931971 1.2474427 0.49097978 0.058945254 -0.049422633 0.5 2.6546049 533.89371 -19.329618 -0.3097419 -0.27735647 0.13886986 1 10 1 -2.0547789e-06 2.1350121e-05 -1.6829825e-05 298 -1 2985.8851 
5.9212278 3.9253509 4.3101164 1.4300939 -0.085491913 0.013369114 0.5 2.5517752 461.69453 -21.099239 0.35638533 0.67666038 -1.0574739 1 10 1 -4.9844262e-05 -9.7625518e-06 1.5202824e-05 325 -1 2990.6579 
5.3017684 1.5811872 5.6904956 1.612683 0.23335142 0.15644083 0.5 -40.776519 472.93546 25.754415 -0.20254446 0.57421884 1.7416379 1 10 1 -4.9917211e-06 4.5815263e-06 9.6391774e-06 321 -1 2994.2546 