restart_version 2
name H20A26L2M0.5B0.5
xmin 0 xmax 20 ymin 0 ymax 10 zmin 0 zmax 24
dt 0.0001 t 2000.0001 tmax 2000 save_count 500000
dim 3 gravity 0.43837115 0 -0.89879405
options_fstat 0 options_data 0 options_ene 1 options_restart 2
Species 1
k 200000 disp 25 kt 57142.857 dispt 25 mu 0.5 rho 1.9098593 dim_particle 3
Walls 1
numFiniteWalls 0 normal 0 0 -1 position 1.7
WallsPeriodic 2
normal 1 0 0 pos_left 0 pos_right 20 shift 20 0 0
normal 0 1 0 pos_left 0 pos_right 10 shift 0 10 0
Particles 4067
19.330017 1.0144385 -1.4931023 0 0 0 1 0 0 0 0 0 0 0 0 0 
19.998067 4.801808 -1.6774446 0 0 0 1 0 0 0 0 0 0 0 0 0 
9.0009585 2.2610568 -0.7392901 0 0 0 1 0 0 0 0 0 0 0 0 0 
11.319671 5.3727791 -2.0989941 0 0 0 1 0 0 0 0 0 0 0 0 0 
5.4432148 0.69356462 -2.3006582 0 0 0 1 0 0 0 0 0 0 0 0 0 
2.4775488 2.183002 -0.97341932 0 0 0 1 0 0 0 0 0 0 0 0 0 
10.381533 3.856421 -0.96416921 0 0 0 1 0 0 0 0 0 0 0 0 0 
11.232541 0.3387141 -2.1629756 0 0 0 1 0 0 0 0 0 0 0 0 0 
10.273786 0.7403499 -0.46097249 0 0 0 1 0 0 0 0 0 0 0 0 0 
12.119962 9.1507635 -0.7747042 0 0 0 1 0 0 0 0 0 0 0 0 0 
17.507186 1.8130578 -1.1150478 0 0 0 1 0 0 0 0 0 0 0 0 0 
0.10339191 6.7847973 -1.8655902 0 0 0 1 0 0 0 0 0 0 0 0 0 
4.6265159 2.1817674 -1.1848395 0 0 0 1 0 0 0 0 0 0 0 0 0 
2.3793022 7.152178 -0.54923244 0 0 0 1 0 0 0 0 0 0 0 0 0 
9.618117 6.9437624 -0.24860092 0 0 0 1 0 0 0 0 0 0 0 0 0 
8.2963885 8.5273967 -1.9377969 0 0 0 1 0 0 0 0 0 0 0 0 0 
17.996162 9.5389345 -1.478369 0 0 0 1 0 0 0 0 0 0 0 0 0 
3.8480144 3.7084524 -2.2709868 0 0 0 1 0 0 0 0 0 0 0 0 0 
14.569038 4.5746731 -2.1100379 0 0 0 1 0 0 0 0 0 0 0 0 0 
11.60796 2.1562788 -1.2803502 0 0 0 1 0 0 0 0 0 0 0 0 0 
1.9033776 4.2527062 -1.9295815 0 0 0 1 0 0 0 0 0 0 0 0 0 
9.6787983 6.494031 -2.1903785 0 0 0 1 0 0 0 0 0 0 0 0 0 
5.3729973 8.2317838 -0.24498363 0 0 0 1 0 0 0 0 0 0 0 0 0 
7.1046979 4.352739 -1.8206174 0 0 0 1 0 0 0 0 0 0 0 0 0 
4.7818852 0.33002225 -0.44813685 0 0 0 1 0 0 0 0 0 0 0 0 0 
19.413485 8.3252937 -0.80739518 0 0 0 1 0 0 0 0 0 0 0 0 0 
16.273632 0.41309669 -1.9180405 0 0 0 1 0 0 0 0 0 0 0 0 0 
10.267362 8.575693 -2.1607585 0 0 0 1 0 0 0 0 0 0 0 0 0 
16.210608 7.4546657 -0.77787905 0 0 0 1 0 0 0 0 0 0 0 0 0 
1.4017444 3.9329842 -0.024649341 0 0 0 1 0 0 0 0 0 0 0 0 0 
14.559586 9.4823649 -1.5499246 0 0 0 1 0 0 0 0 0 0 0 0 0 
0.89243535 5.855513 -0.24304626 0 0 0 1 0 0 0 0 0 0 0 0 0 
6.5814665 9.3658123 -1.367215 0 0 0 1 0 0 0 0 0 0 0 0 0 
12.371518 4.0054793 -1.0762213 0 0 0 1 0 0 0 0 0 0 0 0 0 
5.3888749 3.9629039 -0.65259336 0 0 0 1 0 0 0 0 0 0 0 0 0 
11.885399 5.7239607 -0.17468586 0 0 0 1 0 0 0 0 0 0 0 0 0 
1.9694367 6.2128737 -2.2654843 0 0 0 1 0 0 0 0 0 0 0 0 0 
1.3240057 8.7162954 -1.2277861 0 0 0 1 0 0 0 0 0 0 0 0 0 
6.7173069 0.83747111 -0.046913899 0 0 0 1 0 0 0 0 0 0 0 0 0 
6.8644238 5.3678862 -0.068038272 0 0 0 1 0 0 0 0 0 0 0 0 0 
8.8201676 5.1330734 -1.0194902 0 0 0 1 0 0 0 0 0 0 0 0 0 
14.711867 4.213571 -0.15227394 0 0 0 1 0 0 0 0 0 0 0 0 0 
4.0050126 7.6781626 -1.5827513 0 0 0 1 0 0 0 0 0 0 0 0 0 
14.791158 1.0164942 -0.252422 0 0 0 1 0 0 0 0 0 0 0 0 0 
6.038574 7.6240352 -2.1355829 0 0 0 1 0 0 0 0 0 0 0 0 0 
3.4881521 1.0646865 -2.397689 0 0 0 1 0 0 0 0 0 0 0 0 0 
13.737693 5.9178694 -0.89791124 0 0 0 1 0 0 0 0 0 0 0 0 0 
13.374957 2.6600646 -2.1306228 0 0 0 1 0 0 0 0 0 0 0 0 0 
0.33497185 2.7112414 -1.1908701 0 0 0 1 0 0 0 0 0 0 0 0 0 
13.405396 2.5260049 -0.13938516 0 0 0 1 0 0 0 0 0 0 0 0 0 
7.0155577 2.7023384 -0.700436 0 0 0 1 0 0 0 0 0 0 0 0 0 
13.511428 7.7913334 -1.5279549 0 0 0 1 0 0 0 0 0 0 0 0 0 
11.586472 7.2319552 -1.4531329 0 0 0 1 0 0 0 0 0 0 0 0 0 
8.5291123 0.42952152 -1.3801095 0 0 0 1 0 0 0 0 0 0 0 0 0 
3.1602621 9.4798821 -1.2510768 0 0 0 1 0 0 0 0 0 0 0 0 0 
5.579762 5.770911 -1.5589688 0 0 0 1 0 0 0 0 0 0 0 0 0 
3.4988758 5.0669081 -0.7550967 0 0 0 1 0 0 0 0 0 0 0 0 0 
15.260754 2.8080827 -1.4761412 0 0 0 1 0 0 0 0 0 0 0 0 0 
8.8913668 3.5695487 -2.2570855 0 0 0 1 0 0 0 0 0 0 0 0 0 
7.6871037 6.7628575 -1.2367601 0 0 0 1 0 0 0 0 0 0 0 0 0 
16.633641 6.0268704 -2.1026496 0 0 0 1 0 0 0 0 0 0 0 0 0 
9.4548971 8.9255459 -0.35693579 0 0 0 1 0 0 0 0 0 0 0 0 0 
17.026194 4.6232216 -0.74438735 0 0 0 1 0 0 0 0 0 0 0 0 0 
18.138275 6.7163885 -0.89904905 0 0 0 1 0 0 0 0 0 0 0 0 0 
18.508556 3.495914 -1.478946 0 0 0 1 0 0 0 0 0 0 0 0 0 
1.0529106 0.8638742 -0.49695421 0 0 0 1 0 0 0 0 0 0 0 0 0 
13.108013 0.83602468 -1.3585504 0 0 0 1 0 0 0 0 0 0 0 0 0 
19.895588 5.894161 9.1618221 5.1363937 -0.44643217 -0.070418371 0.5 42.352692 402.28802 0.70782221 0.2086812 -0.89473307 -1.0104749 1 10 0 
16.623413 8.3465709 1.7298143 0.44888141 0.30535675 -0.35975073 0.5 -15.685277 564.65368 21.00317 0.61741699 -0.31748478 -1.4062354 1 10 1 -6.5387437e-06 -1.450246e-05 -1.1541551e-05 35 -1 1724.6564 
9.9613979 6.1466257 6.9184591 4.214685 0.47633672 -0.42714901 0.5 16.599999 507.92037 8.6937434 1.1313433 0.31802082 -0.10602707 1 10 1 2.1374219e-06 -1.0091195e-05 -3.0915483e-06 35 -1 1425.5763 
19.862282 9.4352773 11.063833 6.1613922 -0.30731781 0.39647628 0.5 -16.649383 425.14513 21.624348 -1.0418968 1.1233042 -0.87742788 1 10 1 9.5471212e-06 -3.1216104e-05 1.4277348e-05 69 -1 1951.1248 
10.924701 8.3429792 10.036586 5.343101 -0.16004088 -0.21827635 0.5 -17.402073 557.669 -1.3546008 0.071203207 -0.9346967 0.19149545 1 10 1 -4.4666187e-05 -2.4655306e-05 1.857538e-05 69 -1 1960.2306 
7.6855626 4.0136954 11.004626 6.2040143 -0.34785405 -0.18990038 0.5 22.688079 499.67807 9.207474 0.42019034 0.92326114 -0.6560937 1 10 1 -7.0104599e-06 1.3027313e-06 7.8971663e-06 70 -1 1933.5826 
5.160835 1.5173596 0.38645103 0.25326315 -0.06152737 0.11028815 0.5 -28.85941 501.71045 -31.282319 0.52756692 0.56297025 -0.17659607 1 10 1 7.8156149e-06 1.8330331e-05 -2.9626613e-05 24 -1 2000.0001 
2.9020826 9.6466917 0.98541909 -0.057553272 -0.24149202 0.19808199 0.5 -5.5372901 420.62298 51.985294 0.44939404 1.0841631 -0.43351958 1 10 1 1.1742594e-06 -9.0289782e-06 3.17676e-06 25 -1 1990.093 
18.967236 2.0937969 10.233498 5.8710249 -0.00019939732 0.21845509 0.5 10.502508 496.55602 -27.078236 -0.8542656 0.17237415 -0.82129192 1 10 1 -1.8251013e-05 -2.1722296e-05 9.1495697e-06 38 -1 1706.9578 
8.2685519 9.5869835 0.30823722 -0.10186941 0.28430478 0.0032217635 0.5 21.722553 411.79087 -16.398571 0.37072985 0.022694271 -0.6466435 1 10 1 -8.7822859e-06 -2.3538334e-05 6.8833311e-06 61 -1 1999.9488 
6.9984475 0.82117896 5.0807773 2.1081134 -0.2420758 -0.47625575 0.5 0.76272863 593.70782 14.327213 -1.3168458 -0.97941068 1.4453766 1 10 1 -2.3611826e-05 -6.9416213e-06 -3.5991543e-05 74 -1 1873.4172 
10.135552 7.1570093 9.519184 5.5005527 -0.030373001 -0.66622506 0.5 27.59938 449.89759 45.554333 -1.2970959 -0.37049382 0.1832577 1 10 1 -2.2063214e-05 1.4112771e-05 3.5516343e-05 71 -1 1996.3412 
15.42652 6.0586888 -1.200109 0.058918057 -0.64245375 0.17957966 0.5 3.7845542 -25.61986 6.1109251 0.78907345 0.034364572 0.62890265 1 10 1 -3.5987959e-05 0.00013713824 0 -1 0 2000.0001 
2.5381527 9.3130657 4.6224816 2.6797151 -0.19095053 -0.15574631 0.5 27.043726 490.83469 -6.6879999 0.87539288 2.1466722 -0.66429869 1 10 1 2.3583494e-07 2.0139238e-05 -1.1196766e-05 68 -1 1849.9885 
18.864982 4.4296435 16.754398 7.5207743 0.015305434 -0.0096875328 0.5 -39.03356 362.77728 -17.041684 -0.28893871 0.10063676 0.35371724 1 10 1 3.1345941e-06 -1.0918442e-05 1.630909e-05 70 -1 226.0093 
2.3083607 9.8052723 3.7807946 1.3928386 0.065323021 0.50042578 0.5 -33.360013 441.6734 -13.079891 -0.21678829 1.8023746 0.48659273 1 10 1 1.4848121e-05 3.5840114e-05 1.7546075e-05 80 -1 1999.9642 
9.1497131 0.21095596 5.5790738 3.3047576 -0.14323402 -0.32008744 0.5 -21.03658 535.78707 4.5593208 0.21229601 0.97482164 1.0944982 1 10 1 5.6359249e-05 1.7277615e-05 -7.6446477e-05 77 -1 1996.1305 
6.2234772 2.5594816 2.954712 0.67417413 0.067302907 0.33124895 0.5 -13.541745 567.37017 -10.705236 -1.1847177 -0.55385047 -0.93610536 1 10 1 1.4770462e-05 -3.1069311e-05 7.8248395e-07 82 -1 1606.4975 
1.4229998 7.0075287 13.928786 7.1588027 -0.036949116 0.095465653 0.5 22.865412 464.06142 -11.294428 -0.44962285 0.16923053 -0.09543072 1 10 1 -2.7081178e-05 -1.6472133e-05 1.0338038e-05 72 -1 1290.4738 
7.7267701 7.3909567 5.3930886 3.218592 -0.24715285 0.38233033 0.5 -2.0425222 389.87396 31.006866 0.60581293 0.72451632 -0.93395409 1 10 1 1.9355204e-05 -2.9739566e-05 -1.0277596e-05 43 -1 1965.0199 
5.6403797 2.570039 7.5041617 3.9034711 0.21710538 -0.23479616 0.5 -11.156058 462.38426 -3.7158826 -0.74088865 -1.6633794 -0.65013406 1 10 1 5.7636588e-06 9.9032068e-06 1.0048194e-06 75 -1 1908.8868 
17.074292 1.5728749 6.3563831 3.1414321 -0.23648344 -0.019388668 0.5 -6.9643762 547.33893 -25.207792 -0.71361754 0.36825031 0.30386864 1 10 1 9.1804486e-06 5.5522703e-06 -5.3095247e-06 84 -1 1905.2201 
8.0994299 8.4445935 9.9445089 5.7724121 0.39024916 -0.38069868 0.5 -27.389455 463.08978 10.629915 -0.2102991 0.27333284 0.36889717 1 10 1 -9.0461407e-06 9.2226767e-06 -5.0366702e-06 85 -1 1612.5052 
3.2455955 5.2481115 13.398485 7.0887466 -0.043055622 -0.28525301 0.5 -6.7729701 419.98575 19.694044 0.55404564 -0.80754158 0.24283463 1 10 1 2.1144583e-05 3.8334186e-05 -2.5796889e-05 67 -1 1919.5159 
19.808251 7.5429767 6.3448643 3.6873778 -0.043311836 -0.10598749 0.5 29.425937 501.83806 -22.399357 -0.76996483 0.83138712 1.0106406 1 10 1 -9.6691272e-06 -7.532276e-06 4.3059947e-06 83 -1 1978.304 
13.964152 5.7563516 1.282536 0.83470444 0.33089184 -0.29521315 0.5 -27.923005 476.23259 -44.807801 1.0706716 1.3950392 0.85031084 1 10 1 -6.2590508e-06 2.1120429e-05 8.2101289e-06 35 -1 1997.6543 
16.715225 6.210567 14.825307 7.5165123 -0.012674128 0.040663413 0.5 37.860716 458.22569 -2.8819713 -0.36918827 1.3359838 -0.018544878 1 10 1 1.3246925e-05 6.872694e-06 -3.6456812e-06 81 -1 1699.4101 
3.1401194 5.7326385 2.2038111 0.67149995 0.95721876 -0.29037549 0.5 0.57526668 491.72461 -4.4664192 0.18783577 0.86668606 -0.13798106 1 10 1 -1.573922e-05 3.2577966e-06 3.5021135e-05 92 -1 1975.6455 
15.274751 9.4446258 17.149855 7.8544594 -0.22323389 0.17913944 0.5 -19.026997 306.53135 9.1968813 -0.81839865 -0.11980107 0.20762167 1 10 1 1.6860897e-06 -1.7799575e-06 -2.1388766e-06 81 -1 1578.454 
12.700885 8.8139602 9.0802864 5.4292105 -0.11557231 0.074170834 0.5 -40.731489 494.47027 -3.1649928 -0.96189434 1.1889629 -0.035201843 1 10 1 4.1486448e-05 -2.216357e-05 -2.2432336e-05 71 -1 1945.7416 
16.445887 5.6747747 15.626553 7.7937796 -0.036728377 0.31447162 0.5 17.288009 396.50127 13.444598 -0.15379025 -0.78607937 -0.017129804 1 10 1 9.3034992e-06 -9.3074773e-06 -3.084761e-06 93 -1 1999.9952 
4.707362 6.0047061 2.9344927 1.9906785 0.16986795 0.36538916 0.5 -41.316079 482.15046 -14.061929 -0.10855841 1.0188326 -0.17445315 1 10 1 0.00012904834 -1.6087829e-06 -4.1711949e-05 94 -1 1997.6714 
10.79643 0.29323198 2.6976078 1.7406912 0.58109256 -0.5169258 0.5 10.169323 520.95161 -27.359467 -1.4921866 -0.56794322 0.98457343 1 10 1 -7.8699376e-07 2.2648374e-06 -5.045617e-06 82 -1 1979.9745 
17.736452 3.9295293 14.144138 7.151574 -0.15533937 0.098256578 0.5 12.493146 422.92016 -2.2289253 -0.49954841 -0.6852209 1.2399367 1 10 1 6.1273868e-06 4.1923044e-06 -1.5270333e-06 72 -1 1878.1897 
2.9137757 0.25438198 3.0708002 1.9317448 0.38995949 0.43554322 0.5 -15.254751 530.88443 4.6847298 -0.57697873 1.0619002 -1.2970209 1 10 1 -2.6152094e-06 -1.0636641e-06 -1.6347612e-06 82 -1 1999.1306 
2.4435897 1.0609881 10.803052 5.4740866 -0.12193248 0.63556725 0.5 18.611708 471.54531 -40.946973 -0.65863314 0.058247968 -0.43835467 1 10 1 5.6474245e-06 -1.8667742e-05 -1.6420925e-05 75 -1 1936.82 
5.7974392 3.1576726 16.82876 8.2021676 -0.48605109 0.067271331 0.5 -4.084255 384.38691 -14.528074 -0.23621779 0.38349969 0.50633367 1 10 1 -3.1063654e-06 -2.7339255e-06 2.4917689e-07 81 -1 1969.9916 
11.36645 9.1435937 4.252774 2.627071 -0.10616038 -0.24087438 0.5 -13.501256 522.74108 27.303692 -0.12903296 -1.7216085 -0.66693716 1 10 1 1.1315919e-05 1.4357122e-05 -6.7148144e-06 86 -1 1983.6548 
1.3646583 8.2882263 3.878906 1.8832668 0.4509595 0.12839665 0.5 -10.098148 475.66716 -16.305583 -2.3250803 -0.73399737 -0.93706807 1 10 1 4.2320184e-05 -7.219432e-06 -1.9075786e-05 80 -1 1996.2894 
15.770623 8.8835047 -0.89880614 -0.0055248202 0.0044716261 -0.011758197 0.5 -30.723378 383.36789 -24.039601 -0.1388887 0.22168986 -0.12659248 1 10 2 9.2060385e-05 1.4483648e-05 -0.00015790496 30 -1 2000.0001 -0.00011063311 -3.6538382e-05 -2.9195626e-05 28 -1 2000.0001 
17.061018 1.3316009 12.657948 6.5777412 0.44692723 0.2900041 0.5 7.4054578 454.40906 19.753732 -0.53777891 0.3375327 0.20752493 1 10 1 -1.6196421e-05 -5.206789e-05 2.6541867e-05 67 -1 1816.2843 
10.371777 6.1784805 2.4347134 1.6436354 0.4319039 0.19871712 0.5 -41.551862 498.01475 15.394477 0.58392379 1.2525642 -0.020658647 1 10 1 -2.3861877e-06 -1.9549027e-06 6.8824463e-06 82 -1 1930.1744 
9.6770387 5.9346728 15.793923 7.7713347 0.079869303 -0.16265738 0.5 -27.265017 388.19872 -5.7886271 -0.9992009 0.021710196 0.046574914 1 10 1 -2.7005552e-05 -7.7236261e-06 1.6037975e-05 107 -1 1671.8519 
0.29100513 9.6900835 12.895362 6.6152939 -0.14297331 -0.035892747 0.5 34.549186 507.8858 -10.239367 0.52061552 -0.21661974 -0.83053963 1 10 1 -1.4089393e-05 1.1509449e-05 -1.9035927e-05 100 -1 1829.8263 
10.543487 7.9699261 12.593902 6.9068647 -0.18719444 0.34793374 0.5 -28.016514 399.42959 23.799087 1.2320555 -0.050425859 -1.0504578 1 10 1 6.6139563e-06 5.982768e-06 -6.0837213e-06 93 -1 1901.0571 
4.9815597 1.1339548 6.2766785 3.5859557 0.035816055 -0.44520666 0.5 0.82451054 470.42392 29.334803 -1.7400805 -1.913529 0.64171506 1 10 1 -1.5651697e-05 2.6372985e-05 -3.3217551e-06 77 -1 1965.6922 
11.937461 2.0151813 11.930721 6.4803233 -0.077330324 -0.33850658 0.5 8.9175805 422.36132 -10.498418 -0.53756536 0.43766964 0.54764513 1 10 1 -9.9736951e-06 1.6186377e-05 1.9397808e-05 67 -1 1838.4881 
10.315745 2.0930359 10.467346 5.1258938 -0.15009404 -0.058104453 0.5 17.144719 460.33068 7.8636956 -0.16333786 -0.64208716 0.82358145 1 10 1 1.1535629e-05 4.7110605e-06 -5.6373104e-06 113 -1 1933.0077 
14.953351 1.0875788 2.8904656 2.0387421 0.62946334 0.23821856 0.5 -15.614381 434.67489 10.122175 0.17041079 0.22293285 0.75363514 1 10 1 1.3398637e-05 -3.0959955e-05 2.4963792e-05 99 -1 1989.7261 
15.719944 9.2137225 8.0373842 3.9972255 0.50432698 -0.073858423 0.5 -4.4891943 516.9823 -4.6042981 0.032532288 3.0879746 0.39418901 1 10 1 -2.0235672e-06 -1.3446136e-05 1.549726e-06 96 -1 1986.6995 
7.4414564 3.5570868 7.2885341 4.4608471 0.2909239 0.20799751 0.5 -9.2685158 454.57069 16.767213 0.28887602 -0.20693152 -0.16482148 1 10 1 -1.3114107e-05 2.2695225e-05 2.9527445e-05 67 -1 1919.9762 
18.875675 1.5676025 1.5663221 0.59521395 -0.011053849 -0.68001924 0.5 -4.1518496 536.24718 -1.1526675 -0.14430851 -0.11356862 0.1261291 1 10 1 -4.0658415e-06 2.2894505e-05 1.1201905e-05 101 -1 1989.6292 
3.1817623 1.2807621 4.7472121 2.6553208 0.16646025 0.31897165 0.5 -26.468712 523.31864 46.350826 0.099274435 0.54480578 0.30357113 1 10 1 3.0374988e-05 -7.5351939e-06 -1.1399346e-05 77 -1 1988.4055 
13.040157 3.3380601 7.686745 4.4722059 -0.0034198179 0.14021939 0.5 -11.74004 419.11277 6.2404891 -0.96711524 0.96547425 -0.41193992 1 10 1 1.6087681e-05 1.9969091e-05 -3.0670055e-06 101 -1 1880.7598 
18.121621 8.0219715 14.541433 7.1088822 -0.19252664 -0.10231782 0.5 34.961844 458.87493 -10.508346 0.25435851 0.39434317 -0.57558392 1 10 1 -7.0173791e-07 9.3236189e-07 1.7682102e-06 97 -1 1914.3608 
18.293705 9.3499805 2.9035062 1.9240598 -0.68635365 0.33667024 0.5 12.890315 386.28456 -28.043917 0.20461375 0.20120341 -0.9128907 1 10 1 -9.9357962e-06 1.7772436e-05 9.2881426e-06 105 -1 1994.7926 
13.51565 5.0022275 5.9599471 3.6136943 0.39656987 0.27733564 0.5 9.1010744 561.90615 -29.380907 0.78441208 1.0650992 -0.48187052 1 10 1 -0.00015454942 6.7522079e-05 2.4739386e-05 105 -1 1913.5356 
15.716586 7.848736 11.3687 6.291331 0.26970962 -0.47146444 0.5 15.847671 533.59179 -9.2178534 -0.31293779 0.0928527 0.096998971 1 10 1 -3.8945345e-05 -1.175848e-05 2.1645001e-05 70 -1 1903.8942 
8.3129774 3.2253985 7.7295776 4.5784656 0.41986397 0.47589618 0.5 -10.648595 580.46353 -2.5401065 -0.52450587 0.49654359 1.0766402 1 10 1 -5.1303787e-06 4.850523e-08 1.2015712e-05 117 -1 1999.805 
4.4837098 6.847232 13.945282 7.1725037 0.19459244 -0.10158801 0.5 12.764297 373.34793 -4.1636233 0.038456452 -0.40094173 -0.77315353 1 10 1 7.5996304e-06 -7.901059e-07 -1.3247961e-06 85 -1 1887.0045 
2.4708472 6.596038 9.2396878 5.0065506 0.25030771 0.1618398 0.5 62.624715 475.59282 -45.318687 -0.72244426 1.1520336 -0.59252643 1 10 1 9.2328755e-06 -5.4970959e-06 -3.7152491e-06 70 -1 1966.6552 
9.163767 3.6664717 13.40786 6.7196964 -0.21303943 0.34261358 0.5 -5.6019234 336.03909 22.065933 0.48427502 -0.76369718 0.053709074 1 10 1 2.4118446e-05 1.2477895e-05 4.301446e-06 109 -1 1858.0173 
1.6729183 1.1419045 11.777961 6.6678144 0.12878728 0.28326204 0.5 -11.463847 545.19445 -33.138295 0.60979283 1.0115256 0.027191534 1 10 1 8.2491083e-06 -1.7046418e-06 -2.0039838e-05 89 -1 1975.8136 
6.6654331 5.0712949 3.2436692 2.6467183 -0.33122265 -0.46568395 0.5 -30.148353 270.49907 32.020968 -0.16877214 -1.5091043 1.2932663 1 10 1 1.3938819e-05 1.701714e-05 -1.32818e-05 99 -1 1955.0842 
14.97054 9.8586642 4.4041447 2.6211055 -0.17958614 0.0050998319 0.5 28.439423 451.97961 -17.981524 0.24608637 0.50893589 0.062978892 1 10 1 1.3241923e-05 1.6629642e-05 -4.3622293e-06 99 -1 1994.9046 
11.928021 7.9500933 13.755988 7.3798655 0.10109974 -0.46947625 0.5 6.9893651 408.36125 -17.203916 0.37168152 -1.3326855 -0.12455873 1 10 1 -4.079338e-06 1.4318358e-07 -5.5753156e-07 111 -1 1996.7096 
6.2235807 6.9730341 0.42980188 -0.109486 0.21389302 -0.28142258 0.5 -1.4615345 486.92679 -47.51106 0.06358762 0.059291846 -0.43251272 1 10 1 4.9596183e-06 3.653667e-06 2.9744396e-06 22 -1 1997.1462 
0.35165589 5.3600673 10.991915 6.0679949 -0.10545272 -0.35412161 0.5 19.714558 474.05817 5.8136764 0.41911907 -0.79474033 -1.2646168 1 10 1 -1.3051869e-06 -2.2322761e-06 6.6410043e-06 72 -1 1959.512 
2.0604268 8.3056134 1.5531088 0.5474062 -0.33629167 -0.030183453 0.5 -12.320254 510.16156 -24.692124 0.47562759 -1.5581933 -0.70897284 1 10 1 -5.2285012e-06 3.9559902e-06 1.1041282e-05 76 -1 1974.6414 
8.8242536 6.5678359 10.490659 6.0887435 0.34316624 -0.42980295 0.5 -3.4924933 498.31413 13.184813 -0.57804836 1.0677808 -0.42360518 1 10 1 4.0753666e-05 -2.0523454e-05 -1.2528386e-06 70 -1 1960.1706 
18.410931 0.83584924 8.9495216 4.6661986 -0.056267883 0.25986881 0.5 -32.725949 457.2069 -34.636635 -0.31052208 0.74449205 0.65862064 1 10 1 2.7071572e-05 -8.4232149e-06 -1.6608434e-05 87 -1 1947.32 
6.5463551 7.1413664 10.570624 6.1317258 0.10216143 -0.12640588 0.5 -1.7637881 575.9169 20.121926 -0.77377754 0.34732893 -0.21626104 1 10 1 1.2594856e-08 -2.5021783e-05 -1.4253385e-05 116 -1 1982.202 
19.969737 8.0592037 7.1920535 4.8087521 0.32717278 -0.40140071 0.5 19.628933 510.49788 0.97367811 -0.4576197 -0.89843232 -0.72162303 1 10 1 -4.777957e-05 1.0143396e-05 2.5143572e-06 91 -1 1999.9879 
6.7620897 4.2501669 1.8659905 1.5806338 -0.54650182 0.22214272 0.5 12.651726 511.6274 21.849983 -0.53278574 1.1393586 -1.2261381 1 10 1 -7.8341729e-05 2.1706705e-06 4.2356293e-05 29 -1 1993.1826 
17.967209 3.7421006 8.8527994 4.7909348 0.21280197 -0.26915153 0.5 14.715074 480.75139 -18.180623 -0.78586707 0.96683917 -0.14332564 1 10 1 1.6231713e-05 1.9264201e-06 1.6032769e-05 137 -1 1976.6091 
16.012491 7.4764175 14.504983 7.0078923 -0.078832227 -0.11514312 0.5 18.845214 347.76545 26.245439 0.13899073 -0.25702435 -0.35742815 1 10 1 -1.2205752e-06 -8.6828133e-06 -1.6146892e-05 93 -1 1993.9731 
2.7041812 4.6779633 4.8125749 3.1333712 0.17435123 -0.088305224 0.5 22.173176 437.96501 -16.115727 0.14692642 -0.21545092 -0.96871531 1 10 1 7.9026073e-05 -1.2028985e-05 -3.2751303e-05 69 -1 1953.989 
19.767769 8.6842337 10.367821 4.917743 -0.12067092 0.40664393 0.5 -13.881626 497.40723 12.727401 -0.14843019 0.3835516 -0.48516598 1 10 1 -1.1968317e-05 -1.0574788e-05 1.0749519e-05 70 -1 1999.8617 
12.605362 6.3018371 4.0177567 2.6813977 0.21118891 -0.15014076 0.5 1.1721832 475.43342 -17.246519 0.06059481 0.57585047 1.0737811 1 10 1 3.0780003e-06 2.7193449e-05 -9.3702324e-06 130 -1 1984.3741 
14.387447 1.9327502 6.0776376 3.2909116 0.018835249 0.31981857 0.5 6.6672312 536.05043 -3.2839662 -0.13583221 1.061463 -0.50219272 1 10 1 -3.9200796e-05 3.3748027e-05 -1.7123926e-05 120 -1 1978.0609 
7.7114116 3.4105773 12.120018 6.7101565 0.15668831 -0.057439843 0.5 -10.328491 571.79751 7.2633562 -0.39603297 -0.349211 -0.42295641 1 10 1 8.1282141e-06 9.9229689e-06 -4.5715523e-06 128 -1 1995.8663 
10.105063 7.1641948 12.195879 6.5106319 0.35281302 -0.10478491 0.5 23.633262 519.58061 -16.548277 0.48886551 0.53474983 0.28579283 1 10 1 -3.8542889e-05 -4.9954373e-05 0.0001435795 111 -1 2000.0001 
10.637335 0.66778943 11.750008 5.9752862 0.041351248 0.072799281 0.5 18.947907 512.20402 -8.8189609 -0.31087534 0.64195659 -1.0084937 1 10 1 3.0703507e-06 -5.1267899e-06 7.3589843e-06 113 -1 1994.5312 
19.352989 3.9195909 18.658161 9.1697136 0.017042793 -0.083052556 0.5 11.027341 540.62001 23.146399 -0.1757939 0.23409912 0.32489825 1 10 1 2.1039591e-05 -1.9756523e-06 -1.984333e-05 81 -1 1944.5779 
12.485752 3.5694153 5.5486925 3.5309146 -0.19509529 0.61165855 0.5 -26.670137 561.62069 -39.06037 0.15719802 0.46072171 0.57259101 1 10 1 2.1557975e-05 6.3262893e-06 -1.4723714e-05 84 -1 1881.897 
19.786292 0.44522634 15.195945 7.9435506 -0.061488269 0.19611661 0.5 25.747569 447.69571 42.991153 -0.38055922 -0.15166517 0.32541471 1 10 1 9.1583455e-06 -1.6922394e-05 -4.0269461e-05 149 -1 1927.2886 
13.392475 8.1509139 16.846493 7.6362497 0.077100656 0.30840228 0.5 73.017902 411.60431 -19.715315 -0.12638041 -0.051465311 0.10638454 1 10 1 -1.1790018e-05 -2.0228691e-06 1.138278e-05 95 -1 1989.3095 
11.685138 2.625017 12.686099 6.6780944 -0.082974997 -0.049617334 0.5 -17.562105 519.05003 -2.4423966 1.1466818 0.46318629 -0.24606489 1 10 1 -2.3650112e-05 1.17451e-05 -1.7917634e-05 113 -1 1999.9688 
19.666532 3.8353389 4.8372761 2.8499344 0.59981962 0.43516136 0.5 -24.86793 498.21437 17.08712 -0.077738808 0.94019739 -0.038387241 1 10 1 -2.4429138e-05 8.6560932e-06 -7.437723e-06 125 -1 1988.8989 
9.6714194 7.6603972 17.803645 8.4797981 -0.15914005 -0.0056640398 0.5 28.74174 469.0898 -34.192837 0.40247886 0.71049319 0.55451715 1 10 1 -4.7607555e-06 7.1179398e-06 3.0936887e-05 150 -1 1948.617 
15.377166 1.9555295 3.3326034 2.2373968 -0.051171335 -0.71847465 0.5 -30.395804 462.2334 30.985602 -0.62883491 -0.19170955 0.63807389 1 10 1 2.002077e-05 1.6029923e-05 -2.4799616e-05 115 -1 1999.5294 
19.974714 8.7257355 1.3558 0.84153229 -0.092262847 -0.076094022 0.5 -14.72732 524.38747 13.44617 -0.5048149 0.3183709 -0.69386676 1 10 1 1.8155314e-05 -1.3550153e-05 -1.9783039e-06 135 -1 1993.619 
11.396714 7.1135073 7.2835462 3.4769964 0.17049275 0.50738265 0.5 26.170347 409.10518 5.6059205 0.35818441 1.068463 2.2618442 1 10 1 1.9342476e-05 3.0722656e-06 -3.6037193e-05 127 -1 1984.7365 
1.9157501 6.907183 14.977686 7.3627837 -0.087080343 0.021149783 0.5 -4.5763153 421.00043 -7.4097526 -0.44736532 0.048170838 0.16284736 1 10 1 -1.3006201e-05 -5.1756869e-06 5.0842943e-06 85 -1 1999.4758 
1.2232129 2.9991722 7.7968082 4.2107424 -0.61097989 -0.08981711 0.5 2.9048321 525.52062 14.480489 -0.73611264 0.45327849 0.53776796 1 10 1 4.2215609e-05 8.8836431e-05 0.00016886916 88 -1 1901.7172 
13.824788 7.2196642 -0.15468026 -0.67770481 -0.025766474 0.41081516 0.5 -5.3181078 424.95454 -14.747673 0.37479757 0.88290291 0.15571787 1 10 1 -1.6500983e-05 -4.2378897e-06 9.4927115e-06 46 -1 1999.9873 
2.3744654 2.9805335 6.2579534 3.360617 0.20367334 -0.087667973 0.5 9.3615495 533.01223 -18.933691 0.65961329 -0.46326212 0.015409121 1 10 1 -8.7583291e-06 1.0411051e-05 -2.7306056e-07 155 -1 1996.3794 
4.7646414 1.646884 7.7952897 4.1339298 0.079386881 -0.4623153 0.5 34.118329 539.31762 14.209292 0.54993456 1.3348489 1.6853963 1 10 1 6.6704011e-06 -1.9561586e-05 1.3399415e-05 87 -1 1996.7559 
1.6743007 0.20720393 12.950336 6.5731988 0.10711392 0.19786488 0.5 -54.947846 509.09813 -11.24663 0.16031511 -0.48808894 -0.29062148 1 10 1 4.0342836e-05 -3.6362871e-06 -1.7473569e-05 110 -1 1996.3671 
0.70556069 1.042076 6.6742208 4.4213762 -0.10914659 -0.28160005 0.5 -23.317856 518.21541 -4.3083883 -1.4883759 0.9643709 -1.2717246 1 10 1 -4.6331966e-06 -1.5267507e-05 5.888273e-06 164 -1 1989.8317 
8.5283826 3.694505 18.144765 8.6346438 0.30934076 0.36986054 0.5 19.269208 470.80565 -16.792168 -0.24502867 0.91814142 0.10045129 1 10 1 5.1401251e-06 4.2000971e-07 -3.2793373e-06 95 -1 1846.8784 
0.47202254 8.0543521 1.9052162 0.59604271 -0.047689586 0.26915237 0.5 -25.503978 519.34254 43.489436 -0.18797211 -0.21832077 -0.44165703 1 10 1 2.2206514e-05 3.9017571e-05 2.7578827e-05 158 -1 2000.0001 
8.9816847 6.8917364 17.325979 8.2541897 -0.035433306 -0.099103978 0.5 -10.599791 443.97742 -29.075571 0.051898752 -0.30936722 0.031630845 1 10 1 7.4830468e-05 -3.7444791e-05 6.7549638e-06 156 -1 1994.8932 
16.323625 5.3988227 4.9714574 3.1475748 0.18561122 -0.055248659 0.5 26.25958 488.28261 -40.962625 0.9044646 0.45640587 2.9802969 1 10 1 -4.3949848e-06 0.000120473 7.3657741e-05 143 -1 1961.6044 
3.6711931 0.20810347 10.245717 5.5794889 -0.34300858 -0.0052346728 0.5 0.3559649 554.14467 -29.749269 1.4847853 0.93607014 1.0419308 1 10 1 2.884741e-06 6.9919772e-06 -2.3395812e-05 102 -1 1985.4235 
9.2880112 4.7826682 3.5491844 1.8464795 -0.071521323 -0.82842383 0.5 1.7213108 468.18383 11.044694 -0.63811023 -0.49920956 -0.3533047 1 10 1 1.9507016e-06 8.153113e-06 -9.6563611e-06 145 -1 1989.3545 
17.413996 3.1906632 -0.49965914 -0.12356825 0.15526959 -0.087643544 0.5 18.707225 492.15614 45.426388 -0.16479254 -0.09490723 -0.47154554 1 10 1 -5.069201e-06 -1.2039782e-05 -9.4194414e-06 64 -1 1999.9991 
15.194782 7.4216762 5.340115 2.2022409 -0.16004062 0.30511873 0.5 -8.7636035 569.54362 10.101196 0.90287024 -0.024152294 0.12550904 1 10 1 -5.2063814e-05 -2.4934245e-05 -2.9558675e-05 127 -1 1962.6675 
8.318927 6.5922085 12.602566 6.5602642 -0.067638421 -0.3277976 0.5 11.663417 400.38335 6.6853118 0.30902348 0.66497353 -0.13979487 1 10 1 3.5862597e-05 -9.1848723e-05 -1.3387302e-05 134 -1 1965.5784 
15.708914 6.5313292 4.4666897 2.461113 0.74129458 -0.066702834 0.5 12.355413 581.99378 1.9322277 0.56753159 1.7776593 0.02991931 1 10 1 -3.8298192e-05 -4.3663807e-06 2.0644219e-05 170 -1 1999.4463 
13.326495 4.5063922 17.428617 8.0751953 -0.13882509 -0.21543326 0.5 -32.394599 417.11218 -10.703369 0.026668317 0.55559413 -0.014172064 1 10 1 -2.8161061e-06 -3.9648641e-06 3.1191464e-05 103 -1 1980.3783 
9.8940643 4.4342805 8.8684055 4.3508618 -0.060112242 0.26651806 0.5 1.4660674 477.55248 -12.535678 -0.72991638 0.89217697 0.89108039 1 10 1 -1.8945012e-05 -1.6216799e-05 7.2618531e-06 117 -1 1996.5873 
10.294634 3.1088768 17.451709 8.1711685 0.29369178 0.31613648 0.5 3.253529 420.85513 5.5238898 -0.2025967 -0.055414954 0.20799376 1 10 1 -8.0040619e-06 9.4195908e-06 -7.4947676e-06 167 -1 1922.3736 
12.599301 9.1985192 7.5574124 4.4725278 0.19265034 -0.14940308 0.5 21.999978 422.27322 6.4422338 0.65959334 0.30698731 -0.87340988 1 10 1 8.2625515e-07 -1.7050263e-06 -1.5303441e-06 145 -1 1917.7083 
0.19008992 7.8296789 16.258793 8.1699824 0.088012718 0.19263839 0.5 60.323391 424.50147 -30.025816 -0.83894764 -0.9185397 0.13010326 1 10 1 -2.5003904e-06 -8.2653093e-06 -4.5090661e-06 156 -1 1982.7596 
1.5264287 1.8539359 3.7033223 2.1497878 0.52936008 -0.56834711 0.5 -25.476971 553.31205 5.6001511 -0.35644104 0.69212641 -0.81831272 1 10 1 1.2118902e-05 2.599674e-05 -2.3006036e-05 118 -1 1972.0636 
10.543002 1.5375216 8.7528573 5.3710737 0.037198972 -0.26253714 0.5 -16.244397 548.50406 -21.411838 -0.85453725 0.030193727 1.1111984 1 10 1 -2.0060195e-06 -6.6804738e-07 7.5166385e-06 180 -1 1970.3928 
18.521787 4.2387127 12.28933 6.3725096 -0.052414646 0.48590923 0.5 -5.4636444 495.46196 -10.155022 0.39560352 -1.4018295 -0.44238388 1 10 1 1.787048e-05 2.0160084e-06 -4.1726517e-06 148 -1 1915.7818 
9.870546 8.8481661 1.2693907 0.65806392 0.33652954 -0.094568388 0.5 -41.279231 440.84786 26.59747 -0.28769148 -0.14450056 -0.8532944 1 10 1 3.5917398e-05 -1.1814316e-05 4.3606775e-06 61 -1 1998.7935 
8.6349867 5.0482843 17.975648 8.3034528 0.33048036 0.63957229 0.5 -38.066286 485.72293 29.756315 0.10455594 0.6965581 -0.02174344 1 10 1 8.4360288e-05 -1.4061476e-05 -3.0305272e-05 156 -1 1944.1588 
6.1082768 3.2753942 6.880937 3.6664563 -0.0087250741 0.064968004 0.5 -6.2001586 553.47443 -58.708513 -0.25790294 -0.12587805 -0.07609013 1 10 1 -5.947714e-06 9.7880166e-06 4.2232369e-06 87 -1 1999.3548 
19.681471 8.386743 18.481298 8.3964525 -0.13701194 0.12294475 0.5 34.862621 384.96243 9.6241539 0.3991131 -0.3645393 0.14238311 1 10 1 2.300734e-08 5.9158513e-08 1.549838e-09 95 -1 1989.506 
19.024792 5.6860703 2.2641505 0.64880352 -0.29762204 0.32669904 0.5 -0.18650194 456.40059 16.262519 0.7518867 2.1877775 1.4507933 1 10 1 -3.9110025e-05 3.4311757e-05 8.0775555e-06 170 -1 1983.3264 
5.4113144 7.5643084 9.3225088 5.1870656 0.43052671 0.35155914 0.5 -36.874582 565.06943 1.8030396 -0.084774471 -1.089473 -0.7052468 1 10 1 -1.1604459e-05 1.5444943e-06 4.29245e-06 89 -1 1994.3028 
5.8171948 7.470673 11.175116 6.292977 -0.063252622 -0.031863517 0.5 8.8010058 389.54995 4.9608643 0.52609237 0.68721113 0.58604672 1 10 1 -1.9666845e-05 -8.027117e-06 -1.9974619e-05 138 -1 1999.9343 
10.469524 5.0573564 12.651215 6.6565036 -0.22198621 0.09121733 0.5 37.414962 492.4944 -25.778127 0.31144004 0.63011676 -0.44805885 1 10 1 1.3845153e-05 -1.9717705e-05 1.5814841e-05 147 -1 1990.524 
0.58156916 3.8496624 3.210828 2.2559475 -0.53725995 -0.1014513 0.5 -18.989186 521.6633 43.353593 -0.21657447 1.7642815 0.001103057 1 10 1 -1.9157513e-05 1.7409878e-05 -1.4611911e-06 140 -1 1968.5883 
9.6745075 8.73896 11.110862 5.5301515 0.099235322 -0.013255652 0.5 8.2026061 479.01974 17.075494 1.0045381 0.69509378 -0.7727357 1 10 1 1.441796e-05 2.1240235e-05 6.682908e-06 89 -1 1996.8222 