<?xml version="1.0"?>
<VTKFile type="UnstructuredGrid" version="0.1" byte_order="LittleEndian">
 <UnstructuredGrid>
  <Piece NumberOfPoints="182" NumberOfCells="0">
   <Cells>
    <DataArray type="Int32" name="connectivity" format="ascii">
       0
    </DataArray>
    <DataArray type="Float32" name="offset" format="ascii">
       0
    </DataArray>
    <DataArray type="UInt8" name="types" format="ascii">
       1
    </DataArray>
   </Cells>
   <Points>
<DataArray type="Float32" NumberOfComponents="3" format="ascii">
-0.0113 0.1555 -0.1720 0.1317 0.1155 0.0537 -0.1960 0.2940 0.1245 -0.2669 -0.0867 -0.2767 0.4339 -0.1797 0.1718 -0.1126 0.0310 -0.0710 0.3265 0.1061 -0.1827 0.4009 0.1357 -0.0509 0.0099 0.2772 -0.0646 0.4055 0.1593 0.0489 0.1806 0.1161 -0.2824 0.0525 0.0971 -0.1183 0.0450 -0.0182 -0.0139 0.0918 0.0298 -0.1159 0.2916 0.0949 -0.4246 -0.1876 0.1754 0.2072 -0.1447 -0.1708 0.0659 -0.0674 -0.2154 -0.4456 -0.2034 -0.1373 0.1316 0.0675 0.4734 -0.0126 -0.0741 -0.1139 -0.4587 -0.1942 -0.1667 -0.0813 -0.2326 -0.0756 -0.3847 -0.3147 0.0742 0.1510 0.3613 -0.2019 0.0843 0.2107 0.5070 0.1934 0.3028 -0.0280 0.2059 -0.4240 0.2530 0.0974 -0.0145 0.0140 0.0959 -0.1161 0.2889 -0.1187 -0.1442 -0.1067 -0.2585 0.3326 0.2868 0.1645 -0.2863 -0.1088 0.2978 0.1903 0.0343 0.0713 -0.2533 -0.3392 0.3265 -0.2426 -0.0797 0.0402 0.1865 0.3546 0.0963 -0.2331 0.0987 0.1044 0.3253 0.3558 0.0848 -0.0838 -0.2784 -0.1926 -0.3274 0.2939 0.0133 -0.0660 -0.4464 -0.0121 -0.2296 -0.3309 0.2399 -0.2959 0.2921 0.0716 0.2693 0.0875 -0.3243 -0.2757 0.1662 -0.0090 0.0697 0.0184 -0.5986 -0.1953 0.0444 0.1850 -0.3562 0.1259 0.0717 0.1113 0.4007 0.0308 -0.2102 -0.4815 0.1618 -0.0614 -0.1232 -0.1643 0.2214 0.4150 0.2190 -0.0149 -0.0046 -0.2142 0.2717 0.2895 0.3660 0.5517 -0.0314 0.0552 -0.0975 -0.1365 -0.0888 -0.3746 -0.1216 -0.2264 0.3267 0.2072 0.0605 -0.1451 -0.5122 0.0523 0.0737 0.0240 -0.3733 0.2915 0.1245 0.3214 0.4795 0.1608 -0.3151 -0.1450 -0.0471 -0.2742 -0.3576 -0.1205 -0.4606 0.2359 0.0765 -0.5036 -0.0807 -0.0261 -0.4510 -0.2227 0.3134 0.0124 -0.0885 0.2418 0.0242 -0.3030 0.0045 0.2828 0.2535 0.1796 0.2611 -0.4988 -0.1302 -0.0853 -0.4283 -0.1393 -0.1649 -0.0570 0.1759 0.0971 0.1287 0.0449 -0.5912 -0.4673 0.2664 0.2217 0.3550 0.0148 0.3812 0.4030 -0.3561 0.0258 0.4998 0.1625 -0.2200 -0.1725 -0.0613 -0.5737 0.3683 -0.0665 0.0931 -0.1394 -0.0350 0.1079 -0.5012 -0.0068 0.0471 0.0272 0.0088 -0.5244 -0.0112 -0.1655 -0.0955 -0.4374 -0.1426 -0.3448 -0.2721 -0.4815 0.0953 -0.2687 0.3515 -0.0650 -0.2551 -0.0826 -0.5167 -0.4894 -0.1562 -0.3176 -0.3995 0.0996 0.3558 0.3965 0.0817 0.0119 0.4555 -0.2567 0.2059 0.1746 0.0567 -0.3637 -0.3387 0.0159 0.0851 -0.0412 -0.2768 0.0026 -0.1630 0.1005 -0.3391 0.4781 -0.3084 0.1299 -0.5529 0.1637 0.0850 0.2849 -0.2706 -0.0019 0.3968 0.1277 -0.4101 -0.4196 -0.3191 0.0510 0.4170 -0.1873 0.2430 0.4769 -0.3244 0.0924 0.0724 0.0957 0.0119 -0.2140 -0.3623 0.1801 -0.0270 -0.0131 -0.5998 -0.2581 -0.2605 0.0924 0.3820 0.1243 -0.3256 0.2228 -0.1230 0.0155 -0.1870 -0.4713 0.0903 -0.1721 0.2491 -0.0704 -0.1052 -0.0279 -0.5919 -0.0761 -0.1367 0.1575 0.1836 0.0595 -0.5239 -0.1299 -0.4356 0.0729 -0.1742 0.0161 0.0536 -0.3871 -0.1269 -0.4195 0.4480 -0.2068 0.1008 -0.2852 -0.2821 0.4060 0.5251 0.1859 -0.1792 -0.3173 -0.0976 -0.4965 -0.3275 -0.0452 -0.2077 -0.3516 0.1541 0.1027 -0.4556 0.2279 0.2897 0.3429 -0.1265 0.1331 -0.2833 -0.0919 -0.1159 0.1971 0.2535 0.1162 0.2067 0.5402 0.0988 -0.2908 -0.0431 0.1364 -0.2039 -0.0663 -0.5261 -0.3076 -0.2240 0.4366 -0.5359 -0.2128 -0.1407 -0.3603 -0.0647 0.4535 -0.1491 0.2611 -0.2315 0.2410 0.3872 0.2987 0.1814 -0.0121 -0.0613 -0.3208 0.0332 0.2406 0.4419 -0.1827 0.3290 -0.5745 -0.0908 -0.0478 0.1803 -0.1910 -0.2926 0.2711 0.2916 0.2736 0.2323 0.0755 -0.0644 -0.5211 -0.2472 -0.0677 -0.1533 -0.0498 -0.4408 0.2009 -0.0609 0.0575 0.2483 0.3190 0.3000 0.5074 0.1664 -0.2777 -0.3432 -0.0404 0.3782 -0.1758 -0.0571 -0.1420 -0.4413 0.1846 0.3353 0.3751 0.1172 -0.4508 0.1606 0.5458 0.0609 -0.5090 -0.1608 -0.2655 -0.4232 0.3436 0.0461 -0.1211 -0.3920 0.0392 -0.5939 -0.0547 -0.0122 0.4416 0.1435 -0.1545 0.3556 0.2183 0.2126 0.3039 0.1018 -0.5079 -0.2031 0.1991 -0.3486 -0.1607 0.2485 -0.3251 -0.4989 -0.3189 0.0058 0.4778 -0.2951 0.1709 0.4747 0.2541 -0.0144 0.3612 0.0660 0.4477 -0.4267 -0.1424 -0.3966 0.0277 -0.1227 0.2841 -0.3368 -0.4952 0.0839 -0.5215 -0.2931 -0.0283 -0.2832 -0.0387 0.2359 -0.1496 0.0849 -0.4796 0.2621 0.0851 -0.2263 -0.0722 0.1298 0.1558 -0.2227 -0.3574 0.1039 0.4316 -0.1502 0.3741 -0.5768 0.1257 0.0720 -0.0687 -0.0203 -0.6023 0.2988 0.0519 0.2809 -0.0787 0.3557 -0.1919 -0.4687 -0.1791 -0.0822 0.3274 0.4835 0.0867 
</DataArray>
    </Points>
    <PointData>
<DataArray type="Float32" Name="Position" NumberOfComponents="3" format="ascii">
-0.0113 0.1555 -0.1720 0.1317 0.1155 0.0537 -0.1960 0.2940 0.1245 -0.2669 -0.0867 -0.2767 0.4339 -0.1797 0.1718 -0.1126 0.0310 -0.0710 0.3265 0.1061 -0.1827 0.4009 0.1357 -0.0509 0.0099 0.2772 -0.0646 0.4055 0.1593 0.0489 0.1806 0.1161 -0.2824 0.0525 0.0971 -0.1183 0.0450 -0.0182 -0.0139 0.0918 0.0298 -0.1159 0.2916 0.0949 -0.4246 -0.1876 0.1754 0.2072 -0.1447 -0.1708 0.0659 -0.0674 -0.2154 -0.4456 -0.2034 -0.1373 0.1316 0.0675 0.4734 -0.0126 -0.0741 -0.1139 -0.4587 -0.1942 -0.1667 -0.0813 -0.2326 -0.0756 -0.3847 -0.3147 0.0742 0.1510 0.3613 -0.2019 0.0843 0.2107 0.5070 0.1934 0.3028 -0.0280 0.2059 -0.4240 0.2530 0.0974 -0.0145 0.0140 0.0959 -0.1161 0.2889 -0.1187 -0.1442 -0.1067 -0.2585 0.3326 0.2868 0.1645 -0.2863 -0.1088 0.2978 0.1903 0.0343 0.0713 -0.2533 -0.3392 0.3265 -0.2426 -0.0797 0.0402 0.1865 0.3546 0.0963 -0.2331 0.0987 0.1044 0.3253 0.3558 0.0848 -0.0838 -0.2784 -0.1926 -0.3274 0.2939 0.0133 -0.0660 -0.4464 -0.0121 -0.2296 -0.3309 0.2399 -0.2959 0.2921 0.0716 0.2693 0.0875 -0.3243 -0.2757 0.1662 -0.0090 0.0697 0.0184 -0.5986 -0.1953 0.0444 0.1850 -0.3562 0.1259 0.0717 0.1113 0.4007 0.0308 -0.2102 -0.4815 0.1618 -0.0614 -0.1232 -0.1643 0.2214 0.4150 0.2190 -0.0149 -0.0046 -0.2142 0.2717 0.2895 0.3660 0.5517 -0.0314 0.0552 -0.0975 -0.1365 -0.0888 -0.3746 -0.1216 -0.2264 0.3267 0.2072 0.0605 -0.1451 -0.5122 0.0523 0.0737 0.0240 -0.3733 0.2915 0.1245 0.3214 0.4795 0.1608 -0.3151 -0.1450 -0.0471 -0.2742 -0.3576 -0.1205 -0.4606 0.2359 0.0765 -0.5036 -0.0807 -0.0261 -0.4510 -0.2227 0.3134 0.0124 -0.0885 0.2418 0.0242 -0.3030 0.0045 0.2828 0.2535 0.1796 0.2611 -0.4988 -0.1302 -0.0853 -0.4283 -0.1393 -0.1649 -0.0570 0.1759 0.0971 0.1287 0.0449 -0.5912 -0.4673 0.2664 0.2217 0.3550 0.0148 0.3812 0.4030 -0.3561 0.0258 0.4998 0.1625 -0.2200 -0.1725 -0.0613 -0.5737 0.3683 -0.0665 0.0931 -0.1394 -0.0350 0.1079 -0.5012 -0.0068 0.0471 0.0272 0.0088 -0.5244 -0.0112 -0.1655 -0.0955 -0.4374 -0.1426 -0.3448 -0.2721 -0.4815 0.0953 -0.2687 0.3515 -0.0650 -0.2551 -0.0826 -0.5167 -0.4894 -0.1562 -0.3176 -0.3995 0.0996 0.3558 0.3965 0.0817 0.0119 0.4555 -0.2567 0.2059 0.1746 0.0567 -0.3637 -0.3387 0.0159 0.0851 -0.0412 -0.2768 0.0026 -0.1630 0.1005 -0.3391 0.4781 -0.3084 0.1299 -0.5529 0.1637 0.0850 0.2849 -0.2706 -0.0019 0.3968 0.1277 -0.4101 -0.4196 -0.3191 0.0510 0.4170 -0.1873 0.2430 0.4769 -0.3244 0.0924 0.0724 0.0957 0.0119 -0.2140 -0.3623 0.1801 -0.0270 -0.0131 -0.5998 -0.2581 -0.2605 0.0924 0.3820 0.1243 -0.3256 0.2228 -0.1230 0.0155 -0.1870 -0.4713 0.0903 -0.1721 0.2491 -0.0704 -0.1052 -0.0279 -0.5919 -0.0761 -0.1367 0.1575 0.1836 0.0595 -0.5239 -0.1299 -0.4356 0.0729 -0.1742 0.0161 0.0536 -0.3871 -0.1269 -0.4195 0.4480 -0.2068 0.1008 -0.2852 -0.2821 0.4060 0.5251 0.1859 -0.1792 -0.3173 -0.0976 -0.4965 -0.3275 -0.0452 -0.2077 -0.3516 0.1541 0.1027 -0.4556 0.2279 0.2897 0.3429 -0.1265 0.1331 -0.2833 -0.0919 -0.1159 0.1971 0.2535 0.1162 0.2067 0.5402 0.0988 -0.2908 -0.0431 0.1364 -0.2039 -0.0663 -0.5261 -0.3076 -0.2240 0.4366 -0.5359 -0.2128 -0.1407 -0.3603 -0.0647 0.4535 -0.1491 0.2611 -0.2315 0.2410 0.3872 0.2987 0.1814 -0.0121 -0.0613 -0.3208 0.0332 0.2406 0.4419 -0.1827 0.3290 -0.5745 -0.0908 -0.0478 0.1803 -0.1910 -0.2926 0.2711 0.2916 0.2736 0.2323 0.0755 -0.0644 -0.5211 -0.2472 -0.0677 -0.1533 -0.0498 -0.4408 0.2009 -0.0609 0.0575 0.2483 0.3190 0.3000 0.5074 0.1664 -0.2777 -0.3432 -0.0404 0.3782 -0.1758 -0.0571 -0.1420 -0.4413 0.1846 0.3353 0.3751 0.1172 -0.4508 0.1606 0.5458 0.0609 -0.5090 -0.1608 -0.2655 -0.4232 0.3436 0.0461 -0.1211 -0.3920 0.0392 -0.5939 -0.0547 -0.0122 0.4416 0.1435 -0.1545 0.3556 0.2183 0.2126 0.3039 0.1018 -0.5079 -0.2031 0.1991 -0.3486 -0.1607 0.2485 -0.3251 -0.4989 -0.3189 0.0058 0.4778 -0.2951 0.1709 0.4747 0.2541 -0.0144 0.3612 0.0660 0.4477 -0.4267 -0.1424 -0.3966 0.0277 -0.1227 0.2841 -0.3368 -0.4952 0.0839 -0.5215 -0.2931 -0.0283 -0.2832 -0.0387 0.2359 -0.1496 0.0849 -0.4796 0.2621 0.0851 -0.2263 -0.0722 0.1298 0.1558 -0.2227 -0.3574 0.1039 0.4316 -0.1502 0.3741 -0.5768 0.1257 0.0720 -0.0687 -0.0203 -0.6023 0.2988 0.0519 0.2809 -0.0787 0.3557 -0.1919 -0.4687 -0.1791 -0.0822 0.3274 0.4835 0.0867 
</DataArray>
<DataArray type="Float32" Name="Velocity" NumberOfComponents="3" format="ascii">
0.0000 0.0000 0.0000 0.0000 0.0000 0.0000 0.0000 0.0000 0.0000 0.0000 0.0000 0.0000 0.0000 0.0000 0.0000 0.0000 0.0000 0.0000 0.0000 0.0000 0.0000 0.0000 0.0000 0.0000 0.0000 0.0000 0.0000 0.0000 0.0000 0.0000 0.0000 0.0000 0.0000 0.0000 0.0000 0.0000 0.0000 0.0000 0.0000 0.0000 0.0000 0.0000 0.0000 0.0000 0.0000 0.0000 0.0000 0.0000 0.0000 0.0000 0.0000 0.0000 0.0000 0.0000 0.0000 0.0000 0.0000 0.0000 0.0000 0.0000 0.0000 0.0000 0.0000 0.0000 0.0000 0.0000 0.0000 0.0000 0.0000 0.0000 0.0000 0.0000 0.0000 0.0000 0.0000 0.0000 0.0000 0.0000 0.0000 0.0000 0.0000 0.0000 0.0000 0.0000 0.0000 0.0000 0.0000 0.0000 0.0000 0.0000 0.0000 0.0000 0.0000 0.0000 0.0000 0.0000 0.0000 0.0000 0.0000 0.0000 0.0000 0.0000 0.0000 0.0000 0.0000 0.0000 0.0000 0.0000 0.0000 0.0000 0.0000 0.0000 0.0000 0.0000 0.0000 0.0000 0.0000 0.0000 0.0000 0.0000 0.0000 0.0000 0.0000 0.0000 0.0000 0.0000 0.0000 0.0000 0.0000 0.0000 0.0000 0.0000 0.0000 0.0000 0.0000 0.0000 0.0000 0.0000 0.0000 0.0000 0.0000 0.0000 0.0000 0.0000 0.0000 0.0000 0.0000 0.0000 0.0000 0.0000 0.0000 0.0000 0.0000 0.0000 0.0000 0.0000 0.0000 0.0000 0.0000 0.0000 0.0000 0.0000 0.0000 0.0000 0.0000 0.0000 0.0000 0.0000 0.0000 0.0000 0.0000 0.0000 0.0000 0.0000 0.0000 0.0000 0.0000 0.0000 0.0000 0.0000 0.0000 0.0000 0.0000 0.0000 0.0000 0.0000 0.0000 0.0000 0.0000 0.0000 0.0000 0.0000 0.0000 0.0000 0.0000 0.0000 0.0000 0.0000 0.0000 0.0000 0.0000 0.0000 0.0000 0.0000 0.0000 0.0000 0.0000 0.0000 0.0000 0.0000 0.0000 0.0000 0.0000 0.0000 0.0000 0.0000 0.0000 0.0000 0.0000 0.0000 0.0000 0.0000 0.0000 0.0000 0.0000 0.0000 0.0000 0.0000 0.0000 0.0000 0.0000 0.0000 0.0000 0.0000 0.0000 0.0000 0.0000 0.0000 0.0000 0.0000 0.0000 0.0000 0.0000 0.0000 0.0000 0.0000 0.0000 0.0000 0.0000 0.0000 0.0000 0.0000 0.0000 0.0000 0.0000 0.0000 0.0000 0.0000 0.0000 0.0000 0.0000 0.0000 0.0000 0.0000 0.0000 0.0000 0.0000 0.0000 0.0000 0.0000 0.0000 0.0000 0.0000 0.0000 0.0000 0.0000 0.0000 0.0000 0.0000 0.0000 0.0000 0.0000 0.0000 0.0000 0.0000 0.0000 0.0000 0.0000 0.0000 0.0000 0.0000 0.0000 0.0000 0.0000 0.0000 0.0000 0.0000 0.0000 0.0000 0.0000 0.0000 0.0000 0.0000 0.0000 0.0000 0.0000 0.0000 0.0000 0.0000 0.0000 0.0000 0.0000 0.0000 0.0000 0.0000 0.0000 0.0000 0.0000 0.0000 0.0000 0.0000 0.0000 0.0000 0.0000 0.0000 0.0000 0.0000 0.0000 0.0000 0.0000 0.0000 0.0000 0.0000 0.0000 0.0000 0.0000 0.0000 0.0000 0.0000 0.0000 0.0000 0.0000 0.0000 0.0000 0.0000 0.0000 0.0000 0.0000 0.0000 0.0000 0.0000 0.0000 0.0000 0.0000 0.0000 0.0000 0.0000 0.0000 0.0000 0.0000 0.0000 0.0000 0.0000 0.0000 0.0000 0.0000 0.0000 0.0000 0.0000 0.0000 0.0000 0.0000 0.0000 0.0000 0.0000 0.0000 0.0000 0.0000 0.0000 0.0000 0.0000 0.0000 0.0000 0.0000 0.0000 0.0000 0.0000 0.0000 0.0000 0.0000 0.0000 0.0000 0.0000 0.0000 0.0000 0.0000 0.0000 0.0000 0.0000 0.0000 0.0000 0.0000 0.0000 0.0000 0.0000 0.0000 0.0000 0.0000 0.0000 0.0000 0.0000 0.0000 0.0000 0.0000 0.0000 0.0000 0.0000 0.0000 0.0000 0.0000 0.0000 0.0000 0.0000 0.0000 0.0000 0.0000 0.0000 0.0000 0.0000 0.0000 0.0000 0.0000 0.0000 0.0000 0.0000 0.0000 0.0000 0.0000 0.0000 0.0000 0.0000 0.0000 0.0000 0.0000 0.0000 0.0000 0.0000 0.0000 0.0000 0.0000 0.0000 0.0000 0.0000 0.0000 0.0000 0.0000 0.0000 0.0000 0.0000 0.0000 0.0000 0.0000 0.0000 0.0000 0.0000 0.0000 0.0000 0.0000 0.0000 0.0000 0.0000 0.0000 0.0000 0.0000 0.0000 0.0000 0.0000 0.0000 0.0000 0.0000 0.0000 0.0000 0.0000 0.0000 0.0000 0.0000 0.0000 0.0000 0.0000 0.0000 0.0000 0.0000 0.0000 0.0000 0.0000 0.0000 0.0000 0.0000 0.0000 0.0000 0.0000 0.0000 0.0000 0.0000 0.0000 0.0000 0.0000 0.0000 0.0000 0.0000 0.0000 0.0000 0.0000 0.0000 0.0000 0.0000 0.0000 0.0000 0.0000 0.0000 0.0000 0.0000 0.0000 0.0000 0.0000 0.0000 0.0000 0.0000 0.0000 0.0000 0.0000 0.0000 0.0000 0.0000 0.0000 0.0000 0.0000 0.0000 0.0000 0.0000 0.0000 0.0000 0.0000 0.0000 0.0000 0.0000 
</DataArray>
<DataArray type="Float32" Name="Radius" NumberOfComponents="1" format="ascii">
0.2836 0.4013 0.1318 0.2016 0.1180 0.3971 0.2083 0.1983 0.2316 0.1830 0.2083 0.3713 0.4684 0.4068 0.0904 0.1829 0.3563 0.0426 0.3370 0.0706 0.0906 0.2770 0.1479 0.2597 0.1799 0.0357 0.2470 0.1111 0.3861 0.1728 0.2415 0.1488 0.1852 0.4082 0.0789 0.3617 0.1983 0.2946 0.1310 0.1777 0.1186 0.0958 0.1461 0.1204 0.1697 0.2266 0.0285 0.2738 0.2145 0.1500 0.0684 0.3210 0.0978 0.3387 0.0725 0.0663 0.3437 0.1516 0.2290 0.0523 0.2101 0.1609 0.0319 0.2682 0.0319 0.0594 0.1467 0.1322 0.2393 0.1851 0.2074 0.1030 0.1359 0.2829 0.0245 0.0362 0.0912 0.0360 0.0578 0.0281 0.2335 0.3751 0.1181 0.0882 0.3214 0.0469 0.0591 0.0801 0.0418 0.0249 0.0686 0.2172 0.0552 0.1891 0.2694 0.2488 0.1514 0.0359 0.0394 0.1545 0.0395 0.0915 0.0982 0.0338 0.4255 0.1590 0.0297 0.2410 0.0967 0.2990 0.0949 0.2044 0.0293 0.2959 0.0623 0.1153 0.4013 0.0394 0.1161 0.0410 0.0430 0.0311 0.1806 0.2180 0.0308 0.2285 0.2693 0.2762 0.0354 0.2923 0.0539 0.0326 0.0331 0.0287 0.1362 0.0691 0.3517 0.2116 0.0355 0.0407 0.1352 0.1315 0.3295 0.0442 0.1371 0.3589 0.1107 0.0280 0.0997 0.3400 0.0311 0.0302 0.0244 0.0339 0.0381 0.1598 0.0273 0.1295 0.1480 0.0285 0.0812 0.0806 0.0313 0.0323 0.0845 0.0343 0.0294 0.1745 0.0162 0.0255 0.2424 0.0492 0.2341 0.2743 0.1852 0.0231 0.0286 0.0249 0.1995 0.0970 0.1169 0.0313 
</DataArray>
</PointData>
<CellData/>
</Piece>
</UnstructuredGrid>
</VTKFile>
