<?xml version="1.0"?>
<VTKFile type="UnstructuredGrid" version="0.1" byte_order="LittleEndian">
 <UnstructuredGrid>
  <Piece NumberOfPoints="182" NumberOfCells="0">
   <Cells>
    <DataArray type="Int32" name="connectivity" format="ascii">
       0
    </DataArray>
    <DataArray type="Float32" name="offset" format="ascii">
       0
    </DataArray>
    <DataArray type="UInt8" name="types" format="ascii">
       1
    </DataArray>
   </Cells>
   <Points>
<DataArray type="Float32" NumberOfComponents="3" format="ascii">
0.1270 -0.0904 -0.1720 0.0051 -0.1751 0.0537 0.3515 -0.0364 0.1245 0.1033 0.2609 -0.2767 -0.4150 -0.2198 0.1718 0.0957 0.0670 -0.0710 -0.1264 -0.3192 -0.1827 -0.1510 -0.3954 -0.0509 0.2073 -0.1843 -0.0646 -0.1357 -0.4140 0.0489 -0.0257 -0.2131 -0.2824 0.0414 -0.1023 -0.1183 -0.0427 -0.0230 -0.0139 -0.0355 -0.0897 -0.1159 -0.1128 -0.2852 -0.4246 0.2547 0.0327 0.2072 -0.0394 0.2203 0.0659 -0.1230 0.1892 -0.4456 0.0238 0.2443 0.1316 0.3217 -0.3537 -0.0126 -0.0405 0.1297 -0.4587 -0.0047 0.2559 -0.0813 0.0900 0.2274 -0.3847 0.2577 0.1952 0.1510 -0.3859 -0.1497 0.0843 0.2563 -0.4855 0.1934 -0.2146 -0.2154 0.2059 0.4652 0.1654 0.0974 0.0200 0.0023 0.0959 0.2966 -0.0947 -0.1187 0.0097 0.1791 -0.2585 0.0090 -0.4391 0.1645 0.0987 0.2899 0.2978 -0.0948 -0.1685 0.0713 -0.0999 0.4114 0.3265 0.0932 0.2377 0.0402 0.1544 -0.3698 0.0963 0.2246 0.1167 0.1044 0.0668 -0.4774 0.0848 -0.1611 0.2420 -0.1926 0.4351 0.0650 0.0133 -0.3019 0.3354 -0.0121 -0.1086 0.3879 0.2399 0.4137 0.0418 0.0716 -0.1042 -0.2633 -0.3243 0.3038 0.1065 -0.0090 -0.0303 -0.0654 -0.5986 0.1587 0.1222 0.1850 0.3240 0.1942 0.0717 0.2378 -0.3412 0.0308 -0.2370 0.4689 0.1618 -0.0558 0.1258 -0.1643 0.1786 -0.4351 0.2190 0.0060 0.0144 -0.2142 0.0499 -0.3939 0.3660 -0.3758 -0.4051 0.0552 -0.0430 0.1622 -0.0888 0.1451 0.3662 -0.2264 -0.0486 -0.3838 0.0605 -0.3022 0.4383 0.0523 -0.0285 -0.0721 -0.3733 -0.0899 -0.3039 0.3214 -0.1817 -0.4720 -0.3151 0.0561 0.1417 -0.2742 0.1351 0.3524 -0.4606 -0.0914 -0.2306 -0.5036 0.0313 0.0788 -0.4510 0.3834 -0.0282 0.0124 0.2427 -0.0860 0.0242 0.1966 0.2306 0.2828 -0.0232 -0.3098 0.2611 0.2176 0.4673 -0.0853 0.1657 0.4188 -0.1649 0.1719 -0.0681 0.0971 -0.0474 -0.1277 -0.5912 0.5031 0.1902 0.2217 -0.2149 -0.2830 0.3812 -0.5312 -0.0836 0.0258 -0.1934 -0.4887 -0.2200 0.0627 0.1720 -0.5737 -0.2860 -0.2414 0.0931 0.0619 0.1297 0.1079 0.3142 0.3905 0.0471 -0.0105 -0.0266 -0.5244 -0.1204 0.1141 -0.0955 0.1689 0.4279 -0.3448 -0.1975 0.5165 0.0953 0.4421 -0.0170 -0.0650 0.0989 0.2492 -0.5167 0.1917 0.4766 -0.3176 0.3314 0.2443 0.3558 -0.1898 -0.3576 0.0119 -0.4881 -0.1874 0.2059 -0.0676 -0.1707 -0.3637 0.2281 0.2509 0.0851 -0.1870 0.2082 0.0026 0.1814 0.0615 -0.3391 -0.5423 -0.1718 0.1299 0.4786 0.3216 0.0850 -0.3901 -0.0471 -0.0019 -0.1545 -0.3871 -0.4101 0.0216 0.5268 0.0510 -0.4102 -0.2019 0.2430 -0.5539 -0.1607 0.0924 0.0276 -0.1168 0.0119 -0.1427 0.3958 0.1801 0.0071 0.0291 -0.5998 -0.0362 0.3649 0.0924 -0.1478 -0.3735 -0.3256 -0.2368 -0.0932 0.0155 -0.2439 0.4445 0.0903 0.3016 -0.0262 -0.0704 0.0456 0.0988 -0.5919 -0.0568 0.1458 0.1575 -0.0712 -0.1794 -0.5239 -0.2529 0.3777 0.0729 0.1235 0.1240 0.0536 0.1490 0.3791 -0.4195 -0.4449 -0.2134 0.1008 -0.0355 0.3996 0.4060 -0.1915 -0.5231 -0.1792 0.1271 0.3067 -0.4965 0.1739 0.2812 -0.2077 0.3429 0.1727 0.1027 0.4660 0.2057 0.2897 -0.3160 -0.1835 0.1331 0.1098 0.2769 -0.1159 0.0697 -0.3134 0.1162 0.2845 -0.5036 0.0988 0.1521 0.2516 0.1364 0.0789 0.1994 -0.5261 0.0234 0.3798 0.4366 0.1777 0.5485 -0.1407 0.1798 0.3189 0.4535 0.2962 -0.0516 -0.2315 0.1447 -0.4325 0.2987 -0.1250 -0.1321 -0.0613 0.2300 0.2260 0.2406 -0.4224 -0.2240 0.3290 0.2963 0.5005 -0.0478 -0.2621 -0.0172 -0.2926 0.0519 -0.3948 0.2736 -0.0899 -0.2271 -0.0644 0.1417 0.5591 -0.0677 0.0594 0.1498 -0.4408 -0.1749 -0.1160 0.0575 0.0875 -0.3947 0.3000 -0.1952 -0.4971 -0.2777 0.1877 0.2902 0.3782 0.0681 0.1719 -0.1420 0.4235 0.2224 0.3353 -0.1488 -0.3637 -0.4508 0.3182 -0.4716 0.0609 0.2006 0.4947 -0.2655 0.5345 0.1071 0.0461 -0.2248 0.3432 0.0392 0.3364 0.4925 -0.0122 -0.1709 -0.4317 -0.1545 -0.0585 -0.4132 0.2126 -0.1153 -0.2990 -0.5079 0.2829 0.0295 -0.3486 0.2940 -0.0346 -0.3251 0.0723 0.5877 0.0058 -0.5319 -0.1801 0.1709 -0.1068 -0.5278 -0.0144 -0.1794 -0.3203 0.4477 0.1623 0.4195 -0.3966 -0.1122 0.0569 0.2841 -0.1669 0.5752 0.0839 0.1066 0.5886 -0.0283 0.1507 0.2429 0.2359 0.1608 0.0611 -0.4796 -0.1015 -0.2562 -0.2263 0.1460 -0.0271 0.1558 -0.1334 0.3994 0.1039 -0.3908 -0.2368 0.3741 0.4645 0.3643 0.0720 0.0282 0.0658 -0.6023 -0.1504 -0.2633 0.2809 0.3242 -0.1661 -0.1919 0.1608 0.4753 -0.0822 0.1638 -0.5605 0.0867 
</DataArray>
    </Points>
    <PointData>
<DataArray type="Float32" Name="Position" NumberOfComponents="3" format="ascii">
0.1270 -0.0904 -0.1720 0.0051 -0.1751 0.0537 0.3515 -0.0364 0.1245 0.1033 0.2609 -0.2767 -0.4150 -0.2198 0.1718 0.0957 0.0670 -0.0710 -0.1264 -0.3192 -0.1827 -0.1510 -0.3954 -0.0509 0.2073 -0.1843 -0.0646 -0.1357 -0.4140 0.0489 -0.0257 -0.2131 -0.2824 0.0414 -0.1023 -0.1183 -0.0427 -0.0230 -0.0139 -0.0355 -0.0897 -0.1159 -0.1128 -0.2852 -0.4246 0.2547 0.0327 0.2072 -0.0394 0.2203 0.0659 -0.1230 0.1892 -0.4456 0.0238 0.2443 0.1316 0.3217 -0.3537 -0.0126 -0.0405 0.1297 -0.4587 -0.0047 0.2559 -0.0813 0.0900 0.2274 -0.3847 0.2577 0.1952 0.1510 -0.3859 -0.1497 0.0843 0.2563 -0.4855 0.1934 -0.2146 -0.2154 0.2059 0.4652 0.1654 0.0974 0.0200 0.0023 0.0959 0.2966 -0.0947 -0.1187 0.0097 0.1791 -0.2585 0.0090 -0.4391 0.1645 0.0987 0.2899 0.2978 -0.0948 -0.1685 0.0713 -0.0999 0.4114 0.3265 0.0932 0.2377 0.0402 0.1544 -0.3698 0.0963 0.2246 0.1167 0.1044 0.0668 -0.4774 0.0848 -0.1611 0.2420 -0.1926 0.4351 0.0650 0.0133 -0.3019 0.3354 -0.0121 -0.1086 0.3879 0.2399 0.4137 0.0418 0.0716 -0.1042 -0.2633 -0.3243 0.3038 0.1065 -0.0090 -0.0303 -0.0654 -0.5986 0.1587 0.1222 0.1850 0.3240 0.1942 0.0717 0.2378 -0.3412 0.0308 -0.2370 0.4689 0.1618 -0.0558 0.1258 -0.1643 0.1786 -0.4351 0.2190 0.0060 0.0144 -0.2142 0.0499 -0.3939 0.3660 -0.3758 -0.4051 0.0552 -0.0430 0.1622 -0.0888 0.1451 0.3662 -0.2264 -0.0486 -0.3838 0.0605 -0.3022 0.4383 0.0523 -0.0285 -0.0721 -0.3733 -0.0899 -0.3039 0.3214 -0.1817 -0.4720 -0.3151 0.0561 0.1417 -0.2742 0.1351 0.3524 -0.4606 -0.0914 -0.2306 -0.5036 0.0313 0.0788 -0.4510 0.3834 -0.0282 0.0124 0.2427 -0.0860 0.0242 0.1966 0.2306 0.2828 -0.0232 -0.3098 0.2611 0.2176 0.4673 -0.0853 0.1657 0.4188 -0.1649 0.1719 -0.0681 0.0971 -0.0474 -0.1277 -0.5912 0.5031 0.1902 0.2217 -0.2149 -0.2830 0.3812 -0.5312 -0.0836 0.0258 -0.1934 -0.4887 -0.2200 0.0627 0.1720 -0.5737 -0.2860 -0.2414 0.0931 0.0619 0.1297 0.1079 0.3142 0.3905 0.0471 -0.0105 -0.0266 -0.5244 -0.1204 0.1141 -0.0955 0.1689 0.4279 -0.3448 -0.1975 0.5165 0.0953 0.4421 -0.0170 -0.0650 0.0989 0.2492 -0.5167 0.1917 0.4766 -0.3176 0.3314 0.2443 0.3558 -0.1898 -0.3576 0.0119 -0.4881 -0.1874 0.2059 -0.0676 -0.1707 -0.3637 0.2281 0.2509 0.0851 -0.1870 0.2082 0.0026 0.1814 0.0615 -0.3391 -0.5423 -0.1718 0.1299 0.4786 0.3216 0.0850 -0.3901 -0.0471 -0.0019 -0.1545 -0.3871 -0.4101 0.0216 0.5268 0.0510 -0.4102 -0.2019 0.2430 -0.5539 -0.1607 0.0924 0.0276 -0.1168 0.0119 -0.1427 0.3958 0.1801 0.0071 0.0291 -0.5998 -0.0362 0.3649 0.0924 -0.1478 -0.3735 -0.3256 -0.2368 -0.0932 0.0155 -0.2439 0.4445 0.0903 0.3016 -0.0262 -0.0704 0.0456 0.0988 -0.5919 -0.0568 0.1458 0.1575 -0.0712 -0.1794 -0.5239 -0.2529 0.3777 0.0729 0.1235 0.1240 0.0536 0.1490 0.3791 -0.4195 -0.4449 -0.2134 0.1008 -0.0355 0.3996 0.4060 -0.1915 -0.5231 -0.1792 0.1271 0.3067 -0.4965 0.1739 0.2812 -0.2077 0.3429 0.1727 0.1027 0.4660 0.2057 0.2897 -0.3160 -0.1835 0.1331 0.1098 0.2769 -0.1159 0.0697 -0.3134 0.1162 0.2845 -0.5036 0.0988 0.1521 0.2516 0.1364 0.0789 0.1994 -0.5261 0.0234 0.3798 0.4366 0.1777 0.5485 -0.1407 0.1798 0.3189 0.4535 0.2962 -0.0516 -0.2315 0.1447 -0.4325 0.2987 -0.1250 -0.1321 -0.0613 0.2300 0.2260 0.2406 -0.4224 -0.2240 0.3290 0.2963 0.5005 -0.0478 -0.2621 -0.0172 -0.2926 0.0519 -0.3948 0.2736 -0.0899 -0.2271 -0.0644 0.1417 0.5591 -0.0677 0.0594 0.1498 -0.4408 -0.1749 -0.1160 0.0575 0.0875 -0.3947 0.3000 -0.1952 -0.4971 -0.2777 0.1877 0.2902 0.3782 0.0681 0.1719 -0.1420 0.4235 0.2224 0.3353 -0.1488 -0.3637 -0.4508 0.3182 -0.4716 0.0609 0.2006 0.4947 -0.2655 0.5345 0.1071 0.0461 -0.2248 0.3432 0.0392 0.3364 0.4925 -0.0122 -0.1709 -0.4317 -0.1545 -0.0585 -0.4132 0.2126 -0.1153 -0.2990 -0.5079 0.2829 0.0295 -0.3486 0.2940 -0.0346 -0.3251 0.0723 0.5877 0.0058 -0.5319 -0.1801 0.1709 -0.1068 -0.5278 -0.0144 -0.1794 -0.3203 0.4477 0.1623 0.4195 -0.3966 -0.1122 0.0569 0.2841 -0.1669 0.5752 0.0839 0.1066 0.5886 -0.0283 0.1507 0.2429 0.2359 0.1608 0.0611 -0.4796 -0.1015 -0.2562 -0.2263 0.1460 -0.0271 0.1558 -0.1334 0.3994 0.1039 -0.3908 -0.2368 0.3741 0.4645 0.3643 0.0720 0.0282 0.0658 -0.6023 -0.1504 -0.2633 0.2809 0.3242 -0.1661 -0.1919 0.1608 0.4753 -0.0822 0.1638 -0.5605 0.0867 
</DataArray>
<DataArray type="Float32" Name="Velocity" NumberOfComponents="3" format="ascii">
0.0000 0.0000 0.0000 0.0000 0.0000 0.0000 0.0000 0.0000 0.0000 0.0000 0.0000 0.0000 0.0000 0.0000 0.0000 0.0000 0.0000 0.0000 0.0000 0.0000 0.0000 0.0000 0.0000 0.0000 0.0000 0.0000 0.0000 0.0000 0.0000 0.0000 0.0000 0.0000 0.0000 0.0000 0.0000 0.0000 0.0000 0.0000 0.0000 0.0000 0.0000 0.0000 0.0000 0.0000 0.0000 0.0000 0.0000 0.0000 0.0000 0.0000 0.0000 0.0000 0.0000 0.0000 0.0000 0.0000 0.0000 0.0000 0.0000 0.0000 0.0000 0.0000 0.0000 0.0000 0.0000 0.0000 0.0000 0.0000 0.0000 0.0000 0.0000 0.0000 0.0000 0.0000 0.0000 0.0000 0.0000 0.0000 0.0000 0.0000 0.0000 0.0000 0.0000 0.0000 0.0000 0.0000 0.0000 0.0000 0.0000 0.0000 0.0000 0.0000 0.0000 0.0000 0.0000 0.0000 0.0000 0.0000 0.0000 0.0000 0.0000 0.0000 0.0000 0.0000 0.0000 0.0000 0.0000 0.0000 0.0000 0.0000 0.0000 0.0000 0.0000 0.0000 0.0000 0.0000 0.0000 0.0000 0.0000 0.0000 0.0000 0.0000 0.0000 0.0000 0.0000 0.0000 0.0000 0.0000 0.0000 0.0000 0.0000 0.0000 0.0000 0.0000 0.0000 0.0000 0.0000 0.0000 0.0000 0.0000 0.0000 0.0000 0.0000 0.0000 0.0000 0.0000 0.0000 0.0000 0.0000 0.0000 0.0000 0.0000 0.0000 0.0000 0.0000 0.0000 0.0000 0.0000 0.0000 0.0000 0.0000 0.0000 0.0000 0.0000 0.0000 0.0000 0.0000 0.0000 0.0000 0.0000 0.0000 0.0000 0.0000 0.0000 0.0000 0.0000 0.0000 0.0000 0.0000 0.0000 0.0000 0.0000 0.0000 0.0000 0.0000 0.0000 0.0000 0.0000 0.0000 0.0000 0.0000 0.0000 0.0000 0.0000 0.0000 0.0000 0.0000 0.0000 0.0000 0.0000 0.0000 0.0000 0.0000 0.0000 0.0000 0.0000 0.0000 0.0000 0.0000 0.0000 0.0000 0.0000 0.0000 0.0000 0.0000 0.0000 0.0000 0.0000 0.0000 0.0000 0.0000 0.0000 0.0000 0.0000 0.0000 0.0000 0.0000 0.0000 0.0000 0.0000 0.0000 0.0000 0.0000 0.0000 0.0000 0.0000 0.0000 0.0000 0.0000 0.0000 0.0000 0.0000 0.0000 0.0000 0.0000 0.0000 0.0000 0.0000 0.0000 0.0000 0.0000 0.0000 0.0000 0.0000 0.0000 0.0000 0.0000 0.0000 0.0000 0.0000 0.0000 0.0000 0.0000 0.0000 0.0000 0.0000 0.0000 0.0000 0.0000 0.0000 0.0000 0.0000 0.0000 0.0000 0.0000 0.0000 0.0000 0.0000 0.0000 0.0000 0.0000 0.0000 0.0000 0.0000 0.0000 0.0000 0.0000 0.0000 0.0000 0.0000 0.0000 0.0000 0.0000 0.0000 0.0000 0.0000 0.0000 0.0000 0.0000 0.0000 0.0000 0.0000 0.0000 0.0000 0.0000 0.0000 0.0000 0.0000 0.0000 0.0000 0.0000 0.0000 0.0000 0.0000 0.0000 0.0000 0.0000 0.0000 0.0000 0.0000 0.0000 0.0000 0.0000 0.0000 0.0000 0.0000 0.0000 0.0000 0.0000 0.0000 0.0000 0.0000 0.0000 0.0000 0.0000 0.0000 0.0000 0.0000 0.0000 0.0000 0.0000 0.0000 0.0000 0.0000 0.0000 0.0000 0.0000 0.0000 0.0000 0.0000 0.0000 0.0000 0.0000 0.0000 0.0000 0.0000 0.0000 0.0000 0.0000 0.0000 0.0000 0.0000 0.0000 0.0000 0.0000 0.0000 0.0000 0.0000 0.0000 0.0000 0.0000 0.0000 0.0000 0.0000 0.0000 0.0000 0.0000 0.0000 0.0000 0.0000 0.0000 0.0000 0.0000 0.0000 0.0000 0.0000 0.0000 0.0000 0.0000 0.0000 0.0000 0.0000 0.0000 0.0000 0.0000 0.0000 0.0000 0.0000 0.0000 0.0000 0.0000 0.0000 0.0000 0.0000 0.0000 0.0000 0.0000 0.0000 0.0000 0.0000 0.0000 0.0000 0.0000 0.0000 0.0000 0.0000 0.0000 0.0000 0.0000 0.0000 0.0000 0.0000 0.0000 0.0000 0.0000 0.0000 0.0000 0.0000 0.0000 0.0000 0.0000 0.0000 0.0000 0.0000 0.0000 0.0000 0.0000 0.0000 0.0000 0.0000 0.0000 0.0000 0.0000 0.0000 0.0000 0.0000 0.0000 0.0000 0.0000 0.0000 0.0000 0.0000 0.0000 0.0000 0.0000 0.0000 0.0000 0.0000 0.0000 0.0000 0.0000 0.0000 0.0000 0.0000 0.0000 0.0000 0.0000 0.0000 0.0000 0.0000 0.0000 0.0000 0.0000 0.0000 0.0000 0.0000 0.0000 0.0000 0.0000 0.0000 0.0000 0.0000 0.0000 0.0000 0.0000 0.0000 0.0000 0.0000 0.0000 0.0000 0.0000 0.0000 0.0000 0.0000 0.0000 0.0000 0.0000 0.0000 0.0000 0.0000 0.0000 0.0000 0.0000 0.0000 0.0000 0.0000 0.0000 0.0000 0.0000 0.0000 0.0000 0.0000 0.0000 0.0000 0.0000 0.0000 0.0000 0.0000 0.0000 0.0000 0.0000 0.0000 0.0000 0.0000 0.0000 0.0000 0.0000 0.0000 0.0000 0.0000 0.0000 0.0000 0.0000 0.0000 0.0000 0.0000 0.0000 0.0000 0.0000 0.0000 0.0000 0.0000 0.0000 0.0000 0.0000 0.0000 
</DataArray>
<DataArray type="Float32" Name="Radius" NumberOfComponents="1" format="ascii">
0.2836 0.4013 0.1318 0.2016 0.1180 0.3971 0.2083 0.1983 0.2316 0.1830 0.2083 0.3713 0.4684 0.4068 0.0904 0.1829 0.3563 0.0426 0.3370 0.0706 0.0906 0.2770 0.1479 0.2597 0.1799 0.0357 0.2470 0.1111 0.3861 0.1728 0.2415 0.1488 0.1852 0.4082 0.0789 0.3617 0.1983 0.2946 0.1310 0.1777 0.1186 0.0958 0.1461 0.1204 0.1697 0.2266 0.0285 0.2738 0.2145 0.1500 0.0684 0.3210 0.0978 0.3387 0.0725 0.0663 0.3437 0.1516 0.2290 0.0523 0.2101 0.1609 0.0319 0.2682 0.0319 0.0594 0.1467 0.1322 0.2393 0.1851 0.2074 0.1030 0.1359 0.2829 0.0245 0.0362 0.0912 0.0360 0.0578 0.0281 0.2335 0.3751 0.1181 0.0882 0.3214 0.0469 0.0591 0.0801 0.0418 0.0249 0.0686 0.2172 0.0552 0.1891 0.2694 0.2488 0.1514 0.0359 0.0394 0.1545 0.0395 0.0915 0.0982 0.0338 0.4255 0.1590 0.0297 0.2410 0.0967 0.2990 0.0949 0.2044 0.0293 0.2959 0.0623 0.1153 0.4013 0.0394 0.1161 0.0410 0.0430 0.0311 0.1806 0.2180 0.0308 0.2285 0.2693 0.2762 0.0354 0.2923 0.0539 0.0326 0.0331 0.0287 0.1362 0.0691 0.3517 0.2116 0.0355 0.0407 0.1352 0.1315 0.3295 0.0442 0.1371 0.3589 0.1107 0.0280 0.0997 0.3400 0.0311 0.0302 0.0244 0.0339 0.0381 0.1598 0.0273 0.1295 0.1480 0.0285 0.0812 0.0806 0.0313 0.0323 0.0845 0.0343 0.0294 0.1745 0.0162 0.0255 0.2424 0.0492 0.2341 0.2743 0.1852 0.0231 0.0286 0.0249 0.1995 0.0970 0.1169 0.0313 
</DataArray>
</PointData>
<CellData/>
</Piece>
</UnstructuredGrid>
</VTKFile>
