<?xml version="1.0"?>
<VTKFile type="UnstructuredGrid" version="0.1" byte_order="LittleEndian">
 <UnstructuredGrid>
  <Piece NumberOfPoints="182" NumberOfCells="0">
   <Cells>
    <DataArray type="Int32" name="connectivity" format="ascii">
       0
    </DataArray>
    <DataArray type="Float32" name="offset" format="ascii">
       0
    </DataArray>
    <DataArray type="UInt8" name="types" format="ascii">
       1
    </DataArray>
   </Cells>
   <Points>
<DataArray type="Float32" NumberOfComponents="3" format="ascii">
0.0677 -0.1404 -0.1720 -0.0799 -0.1558 0.0537 0.2905 -0.2012 0.1245 0.2162 0.1788 -0.2767 -0.4696 0.0073 0.1718 0.1161 0.0126 -0.0710 -0.2645 -0.2188 -0.1827 -0.3228 -0.2737 -0.0509 0.0928 -0.2613 -0.0646 -0.3184 -0.2974 0.0489 -0.1252 -0.1744 -0.2824 -0.0130 -0.1096 -0.1183 -0.0485 0.0004 -0.0139 -0.0743 -0.0615 -0.1159 -0.2362 -0.1956 -0.4246 0.2390 -0.0940 0.2072 0.0716 0.2120 0.0659 -0.0166 0.2251 -0.4456 0.1386 0.2026 0.1316 0.1115 -0.4650 -0.0126 0.0270 0.1332 -0.4587 0.1192 0.2265 -0.0813 0.1885 0.1559 -0.3847 0.3199 0.0469 0.1510 -0.4103 0.0547 0.0843 -0.0093 -0.5489 0.1934 -0.2918 -0.0854 0.2059 0.4873 -0.0791 0.0974 0.0186 -0.0077 0.0959 0.2143 -0.2259 -0.1187 0.0948 0.1523 -0.2585 -0.2037 -0.3891 0.1645 0.2262 0.2065 0.2978 -0.1643 -0.1020 0.0713 0.1107 0.4087 0.3265 0.1962 0.1634 0.0402 -0.0429 -0.3984 0.0963 0.2530 -0.0060 0.1044 -0.1715 -0.4506 0.0848 -0.0245 0.2897 -0.1926 0.4126 -0.1527 0.0133 -0.1030 0.4393 -0.0121 0.0917 0.3922 0.2399 0.3827 -0.1627 0.0716 -0.2182 -0.1805 -0.3243 0.3175 -0.0531 -0.0090 -0.0581 -0.0428 -0.5986 0.1980 0.0306 0.1850 0.3775 0.0141 0.0717 0.0440 -0.4136 0.0308 0.0182 0.5251 0.1618 0.0117 0.1371 -0.1643 -0.0531 -0.4674 0.2190 0.0122 0.0098 -0.2142 -0.1461 -0.3692 0.3660 -0.5245 -0.1739 0.0552 0.0404 0.1628 -0.0888 0.3036 0.2510 -0.2264 -0.2274 -0.3129 0.0605 -0.0536 0.5297 0.0523 -0.0597 -0.0495 -0.3733 -0.2252 -0.2230 0.3214 -0.3866 -0.3261 -0.3151 0.1175 0.0971 -0.2742 0.2881 0.2437 -0.4606 -0.1912 -0.1580 -0.5036 0.0654 0.0540 -0.4510 0.3224 -0.2094 0.0124 0.1713 -0.1923 0.0242 0.2834 0.1073 0.2828 -0.1696 -0.2603 0.2611 0.4158 0.3047 -0.0853 0.3470 0.2872 -0.1649 0.1178 -0.1425 0.0971 -0.1031 -0.0891 -0.5912 0.5325 -0.0757 0.2217 -0.3247 -0.1445 0.3812 -0.5058 0.1827 0.0258 -0.4049 -0.3351 -0.2200 0.1378 0.1205 -0.5737 -0.3669 -0.0738 0.0931 0.1167 0.0838 0.1079 0.4635 0.1908 0.0471 -0.0220 -0.0182 -0.5244 -0.0505 0.1580 -0.0955 0.3542 0.2936 -0.3448 0.0757 0.5478 0.0953 0.3792 -0.2279 -0.0650 0.2067 0.1707 -0.5167 0.3976 0.3254 -0.3176 0.4081 0.0545 0.3558 -0.3386 -0.2220 0.0119 -0.5180 0.0710 0.2059 -0.1415 -0.1170 -0.3637 0.3208 0.1099 0.0851 -0.0636 0.2725 0.0026 0.1886 -0.0335 -0.3391 -0.5580 0.1107 0.1299 0.5743 0.0513 0.0850 -0.3645 0.1467 -0.0019 -0.3219 -0.2648 -0.4101 0.2727 0.4512 0.0510 -0.4567 0.0206 0.2430 -0.5628 0.1261 0.0924 -0.0321 -0.1157 0.0119 0.0656 0.4156 0.1801 0.0203 0.0221 -0.5998 0.1441 0.3372 0.0924 -0.3094 -0.2562 -0.3256 -0.2524 0.0324 0.0155 0.0004 0.5070 0.0903 0.2517 -0.1683 -0.0704 0.0876 0.0646 -0.5919 0.0205 0.1551 0.1575 -0.1488 -0.1229 -0.5239 -0.0396 0.4528 0.0729 0.1679 0.0492 0.0536 0.3132 0.2605 -0.4195 -0.4927 0.0273 0.1008 0.1613 0.3673 0.4060 -0.4198 -0.3662 -0.1792 0.2591 0.2076 -0.4965 0.2879 0.1626 -0.2077 0.3837 -0.0139 0.1027 0.5075 -0.0442 0.2897 -0.3654 -0.0086 0.1331 0.2296 0.1898 -0.1159 -0.0899 -0.3083 0.1162 0.0067 -0.5783 0.0988 0.2545 0.1472 0.1364 0.1652 0.1367 -0.5261 0.2035 0.3215 0.4366 0.4199 0.3951 -0.1407 0.3112 0.1928 0.4535 0.2347 -0.1879 -0.2315 -0.0816 -0.4487 0.2987 -0.1732 -0.0556 -0.0613 0.3105 0.0872 0.2406 -0.4781 0.0072 0.3290 0.5007 0.2959 -0.0478 -0.2380 0.1113 -0.2926 -0.1447 -0.3710 0.2736 -0.1882 -0.1557 -0.0644 0.3935 0.4216 -0.0677 0.1242 0.1027 -0.4408 -0.2092 -0.0173 0.0575 -0.1135 -0.3881 0.3000 -0.4105 -0.3415 -0.2777 0.3042 0.1639 0.3782 0.1425 0.1178 -0.1420 0.4783 -0.0092 0.3353 -0.3056 -0.2470 -0.4508 0.0516 -0.5665 0.0609 0.4141 0.3369 -0.2655 0.5200 -0.1637 0.0461 -0.0317 0.4090 0.0392 0.5321 0.2695 -0.0122 -0.3578 -0.2960 -0.1545 -0.2503 -0.3339 0.2126 -0.2451 -0.2065 -0.5079 0.2621 -0.1104 -0.3486 0.2409 -0.1719 -0.3251 0.3465 0.4802 0.0058 -0.5529 0.0985 0.1709 -0.3479 -0.4110 -0.0144 -0.3115 -0.1943 0.4477 0.3443 0.2895 -0.3966 -0.0709 0.1039 0.2841 0.1309 0.5845 0.0839 0.3770 0.4645 -0.0283 0.2491 0.1403 0.2359 0.1703 -0.0239 -0.4796 -0.2123 -0.1756 -0.2263 0.1149 -0.0941 0.1558 0.0755 0.4142 0.1039 -0.4566 -0.0193 0.3741 0.5825 0.0955 0.0720 0.0564 0.0441 -0.6023 -0.2587 -0.1583 0.2809 0.2041 -0.3017 -0.1919 0.3698 0.3390 -0.0822 -0.1264 -0.5701 0.0867 
</DataArray>
    </Points>
    <PointData>
<DataArray type="Float32" Name="Position" NumberOfComponents="3" format="ascii">
0.0677 -0.1404 -0.1720 -0.0799 -0.1558 0.0537 0.2905 -0.2012 0.1245 0.2162 0.1788 -0.2767 -0.4696 0.0073 0.1718 0.1161 0.0126 -0.0710 -0.2645 -0.2188 -0.1827 -0.3228 -0.2737 -0.0509 0.0928 -0.2613 -0.0646 -0.3184 -0.2974 0.0489 -0.1252 -0.1744 -0.2824 -0.0130 -0.1096 -0.1183 -0.0485 0.0004 -0.0139 -0.0743 -0.0615 -0.1159 -0.2362 -0.1956 -0.4246 0.2390 -0.0940 0.2072 0.0716 0.2120 0.0659 -0.0166 0.2251 -0.4456 0.1386 0.2026 0.1316 0.1115 -0.4650 -0.0126 0.0270 0.1332 -0.4587 0.1192 0.2265 -0.0813 0.1885 0.1559 -0.3847 0.3199 0.0469 0.1510 -0.4103 0.0547 0.0843 -0.0093 -0.5489 0.1934 -0.2918 -0.0854 0.2059 0.4873 -0.0791 0.0974 0.0186 -0.0077 0.0959 0.2143 -0.2259 -0.1187 0.0948 0.1523 -0.2585 -0.2037 -0.3891 0.1645 0.2262 0.2065 0.2978 -0.1643 -0.1020 0.0713 0.1107 0.4087 0.3265 0.1962 0.1634 0.0402 -0.0429 -0.3984 0.0963 0.2530 -0.0060 0.1044 -0.1715 -0.4506 0.0848 -0.0245 0.2897 -0.1926 0.4126 -0.1527 0.0133 -0.1030 0.4393 -0.0121 0.0917 0.3922 0.2399 0.3827 -0.1627 0.0716 -0.2182 -0.1805 -0.3243 0.3175 -0.0531 -0.0090 -0.0581 -0.0428 -0.5986 0.1980 0.0306 0.1850 0.3775 0.0141 0.0717 0.0440 -0.4136 0.0308 0.0182 0.5251 0.1618 0.0117 0.1371 -0.1643 -0.0531 -0.4674 0.2190 0.0122 0.0098 -0.2142 -0.1461 -0.3692 0.3660 -0.5245 -0.1739 0.0552 0.0404 0.1628 -0.0888 0.3036 0.2510 -0.2264 -0.2274 -0.3129 0.0605 -0.0536 0.5297 0.0523 -0.0597 -0.0495 -0.3733 -0.2252 -0.2230 0.3214 -0.3866 -0.3261 -0.3151 0.1175 0.0971 -0.2742 0.2881 0.2437 -0.4606 -0.1912 -0.1580 -0.5036 0.0654 0.0540 -0.4510 0.3224 -0.2094 0.0124 0.1713 -0.1923 0.0242 0.2834 0.1073 0.2828 -0.1696 -0.2603 0.2611 0.4158 0.3047 -0.0853 0.3470 0.2872 -0.1649 0.1178 -0.1425 0.0971 -0.1031 -0.0891 -0.5912 0.5325 -0.0757 0.2217 -0.3247 -0.1445 0.3812 -0.5058 0.1827 0.0258 -0.4049 -0.3351 -0.2200 0.1378 0.1205 -0.5737 -0.3669 -0.0738 0.0931 0.1167 0.0838 0.1079 0.4635 0.1908 0.0471 -0.0220 -0.0182 -0.5244 -0.0505 0.1580 -0.0955 0.3542 0.2936 -0.3448 0.0757 0.5478 0.0953 0.3792 -0.2279 -0.0650 0.2067 0.1707 -0.5167 0.3976 0.3254 -0.3176 0.4081 0.0545 0.3558 -0.3386 -0.2220 0.0119 -0.5180 0.0710 0.2059 -0.1415 -0.1170 -0.3637 0.3208 0.1099 0.0851 -0.0636 0.2725 0.0026 0.1886 -0.0335 -0.3391 -0.5580 0.1107 0.1299 0.5743 0.0513 0.0850 -0.3645 0.1467 -0.0019 -0.3219 -0.2648 -0.4101 0.2727 0.4512 0.0510 -0.4567 0.0206 0.2430 -0.5628 0.1261 0.0924 -0.0321 -0.1157 0.0119 0.0656 0.4156 0.1801 0.0203 0.0221 -0.5998 0.1441 0.3372 0.0924 -0.3094 -0.2562 -0.3256 -0.2524 0.0324 0.0155 0.0004 0.5070 0.0903 0.2517 -0.1683 -0.0704 0.0876 0.0646 -0.5919 0.0205 0.1551 0.1575 -0.1488 -0.1229 -0.5239 -0.0396 0.4528 0.0729 0.1679 0.0492 0.0536 0.3132 0.2605 -0.4195 -0.4927 0.0273 0.1008 0.1613 0.3673 0.4060 -0.4198 -0.3662 -0.1792 0.2591 0.2076 -0.4965 0.2879 0.1626 -0.2077 0.3837 -0.0139 0.1027 0.5075 -0.0442 0.2897 -0.3654 -0.0086 0.1331 0.2296 0.1898 -0.1159 -0.0899 -0.3083 0.1162 0.0067 -0.5783 0.0988 0.2545 0.1472 0.1364 0.1652 0.1367 -0.5261 0.2035 0.3215 0.4366 0.4199 0.3951 -0.1407 0.3112 0.1928 0.4535 0.2347 -0.1879 -0.2315 -0.0816 -0.4487 0.2987 -0.1732 -0.0556 -0.0613 0.3105 0.0872 0.2406 -0.4781 0.0072 0.3290 0.5007 0.2959 -0.0478 -0.2380 0.1113 -0.2926 -0.1447 -0.3710 0.2736 -0.1882 -0.1557 -0.0644 0.3935 0.4216 -0.0677 0.1242 0.1027 -0.4408 -0.2092 -0.0173 0.0575 -0.1135 -0.3881 0.3000 -0.4105 -0.3415 -0.2777 0.3042 0.1639 0.3782 0.1425 0.1178 -0.1420 0.4783 -0.0092 0.3353 -0.3056 -0.2470 -0.4508 0.0516 -0.5665 0.0609 0.4141 0.3369 -0.2655 0.5200 -0.1637 0.0461 -0.0317 0.4090 0.0392 0.5321 0.2695 -0.0122 -0.3578 -0.2960 -0.1545 -0.2503 -0.3339 0.2126 -0.2451 -0.2065 -0.5079 0.2621 -0.1104 -0.3486 0.2409 -0.1719 -0.3251 0.3465 0.4802 0.0058 -0.5529 0.0985 0.1709 -0.3479 -0.4110 -0.0144 -0.3115 -0.1943 0.4477 0.3443 0.2895 -0.3966 -0.0709 0.1039 0.2841 0.1309 0.5845 0.0839 0.3770 0.4645 -0.0283 0.2491 0.1403 0.2359 0.1703 -0.0239 -0.4796 -0.2123 -0.1756 -0.2263 0.1149 -0.0941 0.1558 0.0755 0.4142 0.1039 -0.4566 -0.0193 0.3741 0.5825 0.0955 0.0720 0.0564 0.0441 -0.6023 -0.2587 -0.1583 0.2809 0.2041 -0.3017 -0.1919 0.3698 0.3390 -0.0822 -0.1264 -0.5701 0.0867 
</DataArray>
<DataArray type="Float32" Name="Velocity" NumberOfComponents="3" format="ascii">
0.0000 0.0000 0.0000 0.0000 0.0000 0.0000 0.0000 0.0000 0.0000 0.0000 0.0000 0.0000 0.0000 0.0000 0.0000 0.0000 0.0000 0.0000 0.0000 0.0000 0.0000 0.0000 0.0000 0.0000 0.0000 0.0000 0.0000 0.0000 0.0000 0.0000 0.0000 0.0000 0.0000 0.0000 0.0000 0.0000 0.0000 0.0000 0.0000 0.0000 0.0000 0.0000 0.0000 0.0000 0.0000 0.0000 0.0000 0.0000 0.0000 0.0000 0.0000 0.0000 0.0000 0.0000 0.0000 0.0000 0.0000 0.0000 0.0000 0.0000 0.0000 0.0000 0.0000 0.0000 0.0000 0.0000 0.0000 0.0000 0.0000 0.0000 0.0000 0.0000 0.0000 0.0000 0.0000 0.0000 0.0000 0.0000 0.0000 0.0000 0.0000 0.0000 0.0000 0.0000 0.0000 0.0000 0.0000 0.0000 0.0000 0.0000 0.0000 0.0000 0.0000 0.0000 0.0000 0.0000 0.0000 0.0000 0.0000 0.0000 0.0000 0.0000 0.0000 0.0000 0.0000 0.0000 0.0000 0.0000 0.0000 0.0000 0.0000 0.0000 0.0000 0.0000 0.0000 0.0000 0.0000 0.0000 0.0000 0.0000 0.0000 0.0000 0.0000 0.0000 0.0000 0.0000 0.0000 0.0000 0.0000 0.0000 0.0000 0.0000 0.0000 0.0000 0.0000 0.0000 0.0000 0.0000 0.0000 0.0000 0.0000 0.0000 0.0000 0.0000 0.0000 0.0000 0.0000 0.0000 0.0000 0.0000 0.0000 0.0000 0.0000 0.0000 0.0000 0.0000 0.0000 0.0000 0.0000 0.0000 0.0000 0.0000 0.0000 0.0000 0.0000 0.0000 0.0000 0.0000 0.0000 0.0000 0.0000 0.0000 0.0000 0.0000 0.0000 0.0000 0.0000 0.0000 0.0000 0.0000 0.0000 0.0000 0.0000 0.0000 0.0000 0.0000 0.0000 0.0000 0.0000 0.0000 0.0000 0.0000 0.0000 0.0000 0.0000 0.0000 0.0000 0.0000 0.0000 0.0000 0.0000 0.0000 0.0000 0.0000 0.0000 0.0000 0.0000 0.0000 0.0000 0.0000 0.0000 0.0000 0.0000 0.0000 0.0000 0.0000 0.0000 0.0000 0.0000 0.0000 0.0000 0.0000 0.0000 0.0000 0.0000 0.0000 0.0000 0.0000 0.0000 0.0000 0.0000 0.0000 0.0000 0.0000 0.0000 0.0000 0.0000 0.0000 0.0000 0.0000 0.0000 0.0000 0.0000 0.0000 0.0000 0.0000 0.0000 0.0000 0.0000 0.0000 0.0000 0.0000 0.0000 0.0000 0.0000 0.0000 0.0000 0.0000 0.0000 0.0000 0.0000 0.0000 0.0000 0.0000 0.0000 0.0000 0.0000 0.0000 0.0000 0.0000 0.0000 0.0000 0.0000 0.0000 0.0000 0.0000 0.0000 0.0000 0.0000 0.0000 0.0000 0.0000 0.0000 0.0000 0.0000 0.0000 0.0000 0.0000 0.0000 0.0000 0.0000 0.0000 0.0000 0.0000 0.0000 0.0000 0.0000 0.0000 0.0000 0.0000 0.0000 0.0000 0.0000 0.0000 0.0000 0.0000 0.0000 0.0000 0.0000 0.0000 0.0000 0.0000 0.0000 0.0000 0.0000 0.0000 0.0000 0.0000 0.0000 0.0000 0.0000 0.0000 0.0000 0.0000 0.0000 0.0000 0.0000 0.0000 0.0000 0.0000 0.0000 0.0000 0.0000 0.0000 0.0000 0.0000 0.0000 0.0000 0.0000 0.0000 0.0000 0.0000 0.0000 0.0000 0.0000 0.0000 0.0000 0.0000 0.0000 0.0000 0.0000 0.0000 0.0000 0.0000 0.0000 0.0000 0.0000 0.0000 0.0000 0.0000 0.0000 0.0000 0.0000 0.0000 0.0000 0.0000 0.0000 0.0000 0.0000 0.0000 0.0000 0.0000 0.0000 0.0000 0.0000 0.0000 0.0000 0.0000 0.0000 0.0000 0.0000 0.0000 0.0000 0.0000 0.0000 0.0000 0.0000 0.0000 0.0000 0.0000 0.0000 0.0000 0.0000 0.0000 0.0000 0.0000 0.0000 0.0000 0.0000 0.0000 0.0000 0.0000 0.0000 0.0000 0.0000 0.0000 0.0000 0.0000 0.0000 0.0000 0.0000 0.0000 0.0000 0.0000 0.0000 0.0000 0.0000 0.0000 0.0000 0.0000 0.0000 0.0000 0.0000 0.0000 0.0000 0.0000 0.0000 0.0000 0.0000 0.0000 0.0000 0.0000 0.0000 0.0000 0.0000 0.0000 0.0000 0.0000 0.0000 0.0000 0.0000 0.0000 0.0000 0.0000 0.0000 0.0000 0.0000 0.0000 0.0000 0.0000 0.0000 0.0000 0.0000 0.0000 0.0000 0.0000 0.0000 0.0000 0.0000 0.0000 0.0000 0.0000 0.0000 0.0000 0.0000 0.0000 0.0000 0.0000 0.0000 0.0000 0.0000 0.0000 0.0000 0.0000 0.0000 0.0000 0.0000 0.0000 0.0000 0.0000 0.0000 0.0000 0.0000 0.0000 0.0000 0.0000 0.0000 0.0000 0.0000 0.0000 0.0000 0.0000 0.0000 0.0000 0.0000 0.0000 0.0000 0.0000 0.0000 0.0000 0.0000 0.0000 0.0000 0.0000 0.0000 0.0000 0.0000 0.0000 0.0000 0.0000 0.0000 0.0000 0.0000 0.0000 0.0000 0.0000 0.0000 0.0000 0.0000 0.0000 0.0000 0.0000 0.0000 0.0000 0.0000 0.0000 0.0000 0.0000 0.0000 0.0000 0.0000 0.0000 0.0000 0.0000 0.0000 0.0000 0.0000 0.0000 0.0000 0.0000 0.0000 0.0000 0.0000 0.0000 0.0000 0.0000 
</DataArray>
<DataArray type="Float32" Name="Radius" NumberOfComponents="1" format="ascii">
0.2836 0.4013 0.1318 0.2016 0.1180 0.3971 0.2083 0.1983 0.2316 0.1830 0.2083 0.3713 0.4684 0.4068 0.0904 0.1829 0.3563 0.0426 0.3370 0.0706 0.0906 0.2770 0.1479 0.2597 0.1799 0.0357 0.2470 0.1111 0.3861 0.1728 0.2415 0.1488 0.1852 0.4082 0.0789 0.3617 0.1983 0.2946 0.1310 0.1777 0.1186 0.0958 0.1461 0.1204 0.1697 0.2266 0.0285 0.2738 0.2145 0.1500 0.0684 0.3210 0.0978 0.3387 0.0725 0.0663 0.3437 0.1516 0.2290 0.0523 0.2101 0.1609 0.0319 0.2682 0.0319 0.0594 0.1467 0.1322 0.2393 0.1851 0.2074 0.1030 0.1359 0.2829 0.0245 0.0362 0.0912 0.0360 0.0578 0.0281 0.2335 0.3751 0.1181 0.0882 0.3214 0.0469 0.0591 0.0801 0.0418 0.0249 0.0686 0.2172 0.0552 0.1891 0.2694 0.2488 0.1514 0.0359 0.0394 0.1545 0.0395 0.0915 0.0982 0.0338 0.4255 0.1590 0.0297 0.2410 0.0967 0.2990 0.0949 0.2044 0.0293 0.2959 0.0623 0.1153 0.4013 0.0394 0.1161 0.0410 0.0430 0.0311 0.1806 0.2180 0.0308 0.2285 0.2693 0.2762 0.0354 0.2923 0.0539 0.0326 0.0331 0.0287 0.1362 0.0691 0.3517 0.2116 0.0355 0.0407 0.1352 0.1315 0.3295 0.0442 0.1371 0.3589 0.1107 0.0280 0.0997 0.3400 0.0311 0.0302 0.0244 0.0339 0.0381 0.1598 0.0273 0.1295 0.1480 0.0285 0.0812 0.0806 0.0313 0.0323 0.0845 0.0343 0.0294 0.1745 0.0162 0.0255 0.2424 0.0492 0.2341 0.2743 0.1852 0.0231 0.0286 0.0249 0.1995 0.0970 0.1169 0.0313 
</DataArray>
</PointData>
<CellData/>
</Piece>
</UnstructuredGrid>
</VTKFile>
