<?xml version="1.0"?>
<VTKFile type="UnstructuredGrid" version="0.1" byte_order="LittleEndian">
 <UnstructuredGrid>
  <Piece NumberOfPoints="182" NumberOfCells="0">
   <Cells>
    <DataArray type="Int32" name="connectivity" format="ascii">
       0
    </DataArray>
    <DataArray type="Float32" name="offset" format="ascii">
       0
    </DataArray>
    <DataArray type="UInt8" name="types" format="ascii">
       1
    </DataArray>
   </Cells>
   <Points>
<DataArray type="Float32" NumberOfComponents="3" format="ascii">
0.0277 0.1534 -0.1720 0.1562 0.0791 0.0537 -0.1167 0.3335 0.1245 -0.2801 -0.0176 -0.2767 0.3756 -0.2819 0.1718 -0.1013 0.0581 -0.0710 0.3426 0.0216 -0.1827 0.4221 0.0317 -0.0509 0.0785 0.2660 -0.0646 0.4324 0.0535 0.0489 0.2038 0.0675 -0.2824 0.0750 0.0810 -0.1183 0.0390 -0.0288 -0.0139 0.0963 0.0061 -0.1159 0.3061 0.0194 -0.4246 -0.1381 0.2166 0.2072 -0.1826 -0.1294 0.0659 -0.1189 -0.1919 -0.4456 -0.2312 -0.0824 0.1316 0.1831 0.4417 -0.0126 -0.1001 -0.0919 -0.4587 -0.2296 -0.1132 -0.0813 -0.2441 -0.0153 -0.3847 -0.2864 0.1501 0.1510 0.2997 -0.2854 0.0843 0.3302 0.4386 0.1934 0.2863 -0.1024 0.2059 -0.3477 0.3505 0.0974 -0.0106 0.0171 0.0959 -0.0406 0.3087 -0.1187 -0.1662 -0.0675 -0.2585 0.3935 0.1951 0.1645 -0.3044 -0.0342 0.2978 0.1928 -0.0141 0.0713 -0.3297 -0.2656 0.3265 -0.2548 -0.0169 0.0402 0.2688 0.2971 0.0963 -0.2012 0.1535 0.1044 0.4036 0.2637 0.0848 -0.1504 -0.2488 -0.1926 -0.2441 0.3661 0.0133 -0.1749 -0.4159 -0.0121 -0.3047 -0.2634 0.2399 -0.2140 0.3565 0.0716 0.2826 0.0178 -0.3243 -0.2257 0.2296 -0.0090 0.0721 0.0005 -0.5986 -0.1781 0.0916 0.1850 -0.3137 0.2105 0.0717 0.2075 0.3604 0.0308 -0.3234 -0.4141 0.1618 -0.0901 -0.1040 -0.1643 0.3177 0.3469 0.2190 -0.0156 -0.0008 -0.2142 0.3352 0.2129 0.3660 0.5266 -0.1676 0.0552 -0.1284 -0.1080 -0.0888 -0.3931 -0.0246 -0.2264 0.3679 0.1195 0.0605 -0.2680 -0.4601 0.0523 0.0774 0.0049 -0.3733 0.3133 0.0481 0.3214 0.5044 0.0366 -0.3151 -0.1521 -0.0096 -0.2742 -0.3763 -0.0278 -0.4606 0.2476 0.0155 -0.5036 -0.0846 -0.0052 -0.4510 -0.1377 0.3589 0.0124 -0.0256 0.2562 0.0242 -0.2924 0.0797 0.2828 0.2902 0.1109 0.2611 -0.5155 -0.0021 -0.0853 -0.4495 -0.0284 -0.1649 -0.0115 0.1845 0.0971 0.1358 0.0115 -0.5912 -0.3863 0.3743 0.2217 0.3476 -0.0739 0.3812 0.3018 -0.4451 0.0258 0.5245 0.0331 -0.2200 -0.1823 -0.0165 -0.5737 0.3402 -0.1560 0.0931 -0.1437 0.0008 0.1079 -0.4871 0.1181 0.0471 0.0285 0.0018 -0.5244 -0.0520 -0.1575 -0.0955 -0.4591 -0.0294 -0.3448 -0.3832 -0.3987 0.0953 -0.1728 0.4073 -0.0650 -0.2676 -0.0166 -0.5167 -0.5129 -0.0295 -0.3176 -0.3622 0.1958 0.3558 0.4044 -0.0194 0.0119 0.3774 -0.3619 0.2059 0.1832 0.0115 -0.3637 -0.3241 0.0996 0.0851 -0.1088 -0.2579 0.0026 -0.1329 0.1379 -0.3391 0.3864 -0.4176 0.1299 -0.4948 0.2961 0.0850 0.2087 -0.3329 -0.0019 0.4161 0.0250 -0.4101 -0.4858 -0.2048 0.0510 0.3574 -0.2851 0.2430 0.3812 -0.4328 0.0924 0.0940 0.0747 0.0119 -0.2974 -0.2977 0.1801 -0.0294 -0.0060 -0.5998 -0.3148 -0.1881 0.0924 0.4009 0.0254 -0.3256 0.1852 -0.1746 0.0155 -0.2983 -0.4100 0.0903 -0.1047 0.2841 -0.0704 -0.1088 -0.0008 -0.5919 -0.1078 -0.1135 0.1575 0.1926 0.0120 -0.5239 -0.2341 -0.3897 0.0729 -0.1648 0.0589 0.0536 -0.4065 -0.0266 -0.4195 0.3826 -0.3117 0.1008 -0.3464 -0.2023 0.4060 0.5549 0.0495 -0.1792 -0.3316 -0.0156 -0.4965 -0.3285 0.0377 -0.2077 -0.3023 0.2368 0.1027 -0.3846 0.3340 0.2897 0.3006 -0.2078 0.1331 -0.2973 -0.0186 -0.1159 0.2539 0.1965 0.1162 0.3345 0.4718 0.0988 -0.2924 0.0305 0.1364 -0.2140 -0.0135 -0.5261 -0.3536 -0.1405 0.4366 -0.5720 -0.0728 -0.1407 -0.3651 0.0270 0.4535 -0.0794 0.2900 -0.2315 0.3298 0.3151 0.2987 0.1727 -0.0568 -0.0613 -0.3024 0.1119 0.2406 0.3826 -0.2868 0.3290 -0.5790 0.0550 -0.0478 0.1271 -0.2299 -0.2926 0.3351 0.2150 0.2736 0.2438 0.0153 -0.0644 -0.5662 -0.1098 -0.0677 -0.1608 -0.0101 -0.4408 0.1794 -0.1089 0.0575 0.3199 0.2473 0.3000 0.5329 0.0350 -0.2777 -0.3425 0.0462 0.3782 -0.1845 -0.0116 -0.1420 -0.3815 0.2885 0.3353 0.3925 0.0202 -0.4508 0.2912 0.4887 0.0609 -0.5330 -0.0291 -0.2655 -0.3245 0.4381 0.0461 -0.2148 -0.3496 0.0392 -0.5889 0.0947 -0.0122 0.4634 0.0292 -0.1545 0.3987 0.1230 0.2126 0.3197 0.0230 -0.5079 -0.1472 0.2434 -0.3486 -0.0939 0.2807 -0.3251 -0.5626 -0.1848 0.0058 0.3894 -0.4046 0.1709 0.5230 0.1281 -0.0144 0.3662 -0.0259 0.4477 -0.4487 -0.0318 -0.3966 -0.0037 -0.1257 0.2841 -0.4494 -0.3959 0.0839 -0.5780 -0.1542 -0.0283 -0.2840 0.0329 0.2359 -0.1238 0.1194 -0.4796 0.2750 0.0173 -0.2263 -0.0377 0.1437 0.1558 -0.3045 -0.2908 0.1039 0.3807 -0.2528 0.3741 -0.5274 0.2652 0.0720 -0.0716 -0.0026 -0.6023 0.3023 -0.0240 0.2809 0.0123 0.3641 -0.1919 -0.4985 -0.0569 -0.0822 0.4374 0.3869 0.0867 
</DataArray>
    </Points>
    <PointData>
<DataArray type="Float32" Name="Position" NumberOfComponents="3" format="ascii">
0.0277 0.1534 -0.1720 0.1562 0.0791 0.0537 -0.1167 0.3335 0.1245 -0.2801 -0.0176 -0.2767 0.3756 -0.2819 0.1718 -0.1013 0.0581 -0.0710 0.3426 0.0216 -0.1827 0.4221 0.0317 -0.0509 0.0785 0.2660 -0.0646 0.4324 0.0535 0.0489 0.2038 0.0675 -0.2824 0.0750 0.0810 -0.1183 0.0390 -0.0288 -0.0139 0.0963 0.0061 -0.1159 0.3061 0.0194 -0.4246 -0.1381 0.2166 0.2072 -0.1826 -0.1294 0.0659 -0.1189 -0.1919 -0.4456 -0.2312 -0.0824 0.1316 0.1831 0.4417 -0.0126 -0.1001 -0.0919 -0.4587 -0.2296 -0.1132 -0.0813 -0.2441 -0.0153 -0.3847 -0.2864 0.1501 0.1510 0.2997 -0.2854 0.0843 0.3302 0.4386 0.1934 0.2863 -0.1024 0.2059 -0.3477 0.3505 0.0974 -0.0106 0.0171 0.0959 -0.0406 0.3087 -0.1187 -0.1662 -0.0675 -0.2585 0.3935 0.1951 0.1645 -0.3044 -0.0342 0.2978 0.1928 -0.0141 0.0713 -0.3297 -0.2656 0.3265 -0.2548 -0.0169 0.0402 0.2688 0.2971 0.0963 -0.2012 0.1535 0.1044 0.4036 0.2637 0.0848 -0.1504 -0.2488 -0.1926 -0.2441 0.3661 0.0133 -0.1749 -0.4159 -0.0121 -0.3047 -0.2634 0.2399 -0.2140 0.3565 0.0716 0.2826 0.0178 -0.3243 -0.2257 0.2296 -0.0090 0.0721 0.0005 -0.5986 -0.1781 0.0916 0.1850 -0.3137 0.2105 0.0717 0.2075 0.3604 0.0308 -0.3234 -0.4141 0.1618 -0.0901 -0.1040 -0.1643 0.3177 0.3469 0.2190 -0.0156 -0.0008 -0.2142 0.3352 0.2129 0.3660 0.5266 -0.1676 0.0552 -0.1284 -0.1080 -0.0888 -0.3931 -0.0246 -0.2264 0.3679 0.1195 0.0605 -0.2680 -0.4601 0.0523 0.0774 0.0049 -0.3733 0.3133 0.0481 0.3214 0.5044 0.0366 -0.3151 -0.1521 -0.0096 -0.2742 -0.3763 -0.0278 -0.4606 0.2476 0.0155 -0.5036 -0.0846 -0.0052 -0.4510 -0.1377 0.3589 0.0124 -0.0256 0.2562 0.0242 -0.2924 0.0797 0.2828 0.2902 0.1109 0.2611 -0.5155 -0.0021 -0.0853 -0.4495 -0.0284 -0.1649 -0.0115 0.1845 0.0971 0.1358 0.0115 -0.5912 -0.3863 0.3743 0.2217 0.3476 -0.0739 0.3812 0.3018 -0.4451 0.0258 0.5245 0.0331 -0.2200 -0.1823 -0.0165 -0.5737 0.3402 -0.1560 0.0931 -0.1437 0.0008 0.1079 -0.4871 0.1181 0.0471 0.0285 0.0018 -0.5244 -0.0520 -0.1575 -0.0955 -0.4591 -0.0294 -0.3448 -0.3832 -0.3987 0.0953 -0.1728 0.4073 -0.0650 -0.2676 -0.0166 -0.5167 -0.5129 -0.0295 -0.3176 -0.3622 0.1958 0.3558 0.4044 -0.0194 0.0119 0.3774 -0.3619 0.2059 0.1832 0.0115 -0.3637 -0.3241 0.0996 0.0851 -0.1088 -0.2579 0.0026 -0.1329 0.1379 -0.3391 0.3864 -0.4176 0.1299 -0.4948 0.2961 0.0850 0.2087 -0.3329 -0.0019 0.4161 0.0250 -0.4101 -0.4858 -0.2048 0.0510 0.3574 -0.2851 0.2430 0.3812 -0.4328 0.0924 0.0940 0.0747 0.0119 -0.2974 -0.2977 0.1801 -0.0294 -0.0060 -0.5998 -0.3148 -0.1881 0.0924 0.4009 0.0254 -0.3256 0.1852 -0.1746 0.0155 -0.2983 -0.4100 0.0903 -0.1047 0.2841 -0.0704 -0.1088 -0.0008 -0.5919 -0.1078 -0.1135 0.1575 0.1926 0.0120 -0.5239 -0.2341 -0.3897 0.0729 -0.1648 0.0589 0.0536 -0.4065 -0.0266 -0.4195 0.3826 -0.3117 0.1008 -0.3464 -0.2023 0.4060 0.5549 0.0495 -0.1792 -0.3316 -0.0156 -0.4965 -0.3285 0.0377 -0.2077 -0.3023 0.2368 0.1027 -0.3846 0.3340 0.2897 0.3006 -0.2078 0.1331 -0.2973 -0.0186 -0.1159 0.2539 0.1965 0.1162 0.3345 0.4718 0.0988 -0.2924 0.0305 0.1364 -0.2140 -0.0135 -0.5261 -0.3536 -0.1405 0.4366 -0.5720 -0.0728 -0.1407 -0.3651 0.0270 0.4535 -0.0794 0.2900 -0.2315 0.3298 0.3151 0.2987 0.1727 -0.0568 -0.0613 -0.3024 0.1119 0.2406 0.3826 -0.2868 0.3290 -0.5790 0.0550 -0.0478 0.1271 -0.2299 -0.2926 0.3351 0.2150 0.2736 0.2438 0.0153 -0.0644 -0.5662 -0.1098 -0.0677 -0.1608 -0.0101 -0.4408 0.1794 -0.1089 0.0575 0.3199 0.2473 0.3000 0.5329 0.0350 -0.2777 -0.3425 0.0462 0.3782 -0.1845 -0.0116 -0.1420 -0.3815 0.2885 0.3353 0.3925 0.0202 -0.4508 0.2912 0.4887 0.0609 -0.5330 -0.0291 -0.2655 -0.3245 0.4381 0.0461 -0.2148 -0.3496 0.0392 -0.5889 0.0947 -0.0122 0.4634 0.0292 -0.1545 0.3987 0.1230 0.2126 0.3197 0.0230 -0.5079 -0.1472 0.2434 -0.3486 -0.0939 0.2807 -0.3251 -0.5626 -0.1848 0.0058 0.3894 -0.4046 0.1709 0.5230 0.1281 -0.0144 0.3662 -0.0259 0.4477 -0.4487 -0.0318 -0.3966 -0.0037 -0.1257 0.2841 -0.4494 -0.3959 0.0839 -0.5780 -0.1542 -0.0283 -0.2840 0.0329 0.2359 -0.1238 0.1194 -0.4796 0.2750 0.0173 -0.2263 -0.0377 0.1437 0.1558 -0.3045 -0.2908 0.1039 0.3807 -0.2528 0.3741 -0.5274 0.2652 0.0720 -0.0716 -0.0026 -0.6023 0.3023 -0.0240 0.2809 0.0123 0.3641 -0.1919 -0.4985 -0.0569 -0.0822 0.4374 0.3869 0.0867 
</DataArray>
<DataArray type="Float32" Name="Velocity" NumberOfComponents="3" format="ascii">
0.0000 0.0000 0.0000 0.0000 0.0000 0.0000 0.0000 0.0000 0.0000 0.0000 0.0000 0.0000 0.0000 0.0000 0.0000 0.0000 0.0000 0.0000 0.0000 0.0000 0.0000 0.0000 0.0000 0.0000 0.0000 0.0000 0.0000 0.0000 0.0000 0.0000 0.0000 0.0000 0.0000 0.0000 0.0000 0.0000 0.0000 0.0000 0.0000 0.0000 0.0000 0.0000 0.0000 0.0000 0.0000 0.0000 0.0000 0.0000 0.0000 0.0000 0.0000 0.0000 0.0000 0.0000 0.0000 0.0000 0.0000 0.0000 0.0000 0.0000 0.0000 0.0000 0.0000 0.0000 0.0000 0.0000 0.0000 0.0000 0.0000 0.0000 0.0000 0.0000 0.0000 0.0000 0.0000 0.0000 0.0000 0.0000 0.0000 0.0000 0.0000 0.0000 0.0000 0.0000 0.0000 0.0000 0.0000 0.0000 0.0000 0.0000 0.0000 0.0000 0.0000 0.0000 0.0000 0.0000 0.0000 0.0000 0.0000 0.0000 0.0000 0.0000 0.0000 0.0000 0.0000 0.0000 0.0000 0.0000 0.0000 0.0000 0.0000 0.0000 0.0000 0.0000 0.0000 0.0000 0.0000 0.0000 0.0000 0.0000 0.0000 0.0000 0.0000 0.0000 0.0000 0.0000 0.0000 0.0000 0.0000 0.0000 0.0000 0.0000 0.0000 0.0000 0.0000 0.0000 0.0000 0.0000 0.0000 0.0000 0.0000 0.0000 0.0000 0.0000 0.0000 0.0000 0.0000 0.0000 0.0000 0.0000 0.0000 0.0000 0.0000 0.0000 0.0000 0.0000 0.0000 0.0000 0.0000 0.0000 0.0000 0.0000 0.0000 0.0000 0.0000 0.0000 0.0000 0.0000 0.0000 0.0000 0.0000 0.0000 0.0000 0.0000 0.0000 0.0000 0.0000 0.0000 0.0000 0.0000 0.0000 0.0000 0.0000 0.0000 0.0000 0.0000 0.0000 0.0000 0.0000 0.0000 0.0000 0.0000 0.0000 0.0000 0.0000 0.0000 0.0000 0.0000 0.0000 0.0000 0.0000 0.0000 0.0000 0.0000 0.0000 0.0000 0.0000 0.0000 0.0000 0.0000 0.0000 0.0000 0.0000 0.0000 0.0000 0.0000 0.0000 0.0000 0.0000 0.0000 0.0000 0.0000 0.0000 0.0000 0.0000 0.0000 0.0000 0.0000 0.0000 0.0000 0.0000 0.0000 0.0000 0.0000 0.0000 0.0000 0.0000 0.0000 0.0000 0.0000 0.0000 0.0000 0.0000 0.0000 0.0000 0.0000 0.0000 0.0000 0.0000 0.0000 0.0000 0.0000 0.0000 0.0000 0.0000 0.0000 0.0000 0.0000 0.0000 0.0000 0.0000 0.0000 0.0000 0.0000 0.0000 0.0000 0.0000 0.0000 0.0000 0.0000 0.0000 0.0000 0.0000 0.0000 0.0000 0.0000 0.0000 0.0000 0.0000 0.0000 0.0000 0.0000 0.0000 0.0000 0.0000 0.0000 0.0000 0.0000 0.0000 0.0000 0.0000 0.0000 0.0000 0.0000 0.0000 0.0000 0.0000 0.0000 0.0000 0.0000 0.0000 0.0000 0.0000 0.0000 0.0000 0.0000 0.0000 0.0000 0.0000 0.0000 0.0000 0.0000 0.0000 0.0000 0.0000 0.0000 0.0000 0.0000 0.0000 0.0000 0.0000 0.0000 0.0000 0.0000 0.0000 0.0000 0.0000 0.0000 0.0000 0.0000 0.0000 0.0000 0.0000 0.0000 0.0000 0.0000 0.0000 0.0000 0.0000 0.0000 0.0000 0.0000 0.0000 0.0000 0.0000 0.0000 0.0000 0.0000 0.0000 0.0000 0.0000 0.0000 0.0000 0.0000 0.0000 0.0000 0.0000 0.0000 0.0000 0.0000 0.0000 0.0000 0.0000 0.0000 0.0000 0.0000 0.0000 0.0000 0.0000 0.0000 0.0000 0.0000 0.0000 0.0000 0.0000 0.0000 0.0000 0.0000 0.0000 0.0000 0.0000 0.0000 0.0000 0.0000 0.0000 0.0000 0.0000 0.0000 0.0000 0.0000 0.0000 0.0000 0.0000 0.0000 0.0000 0.0000 0.0000 0.0000 0.0000 0.0000 0.0000 0.0000 0.0000 0.0000 0.0000 0.0000 0.0000 0.0000 0.0000 0.0000 0.0000 0.0000 0.0000 0.0000 0.0000 0.0000 0.0000 0.0000 0.0000 0.0000 0.0000 0.0000 0.0000 0.0000 0.0000 0.0000 0.0000 0.0000 0.0000 0.0000 0.0000 0.0000 0.0000 0.0000 0.0000 0.0000 0.0000 0.0000 0.0000 0.0000 0.0000 0.0000 0.0000 0.0000 0.0000 0.0000 0.0000 0.0000 0.0000 0.0000 0.0000 0.0000 0.0000 0.0000 0.0000 0.0000 0.0000 0.0000 0.0000 0.0000 0.0000 0.0000 0.0000 0.0000 0.0000 0.0000 0.0000 0.0000 0.0000 0.0000 0.0000 0.0000 0.0000 0.0000 0.0000 0.0000 0.0000 0.0000 0.0000 0.0000 0.0000 0.0000 0.0000 0.0000 0.0000 0.0000 0.0000 0.0000 0.0000 0.0000 0.0000 0.0000 0.0000 0.0000 0.0000 0.0000 0.0000 0.0000 0.0000 0.0000 0.0000 0.0000 0.0000 0.0000 0.0000 0.0000 0.0000 0.0000 0.0000 0.0000 0.0000 0.0000 0.0000 0.0000 0.0000 0.0000 0.0000 0.0000 0.0000 0.0000 0.0000 0.0000 0.0000 0.0000 0.0000 0.0000 0.0000 0.0000 0.0000 0.0000 0.0000 0.0000 0.0000 0.0000 0.0000 0.0000 0.0000 0.0000 0.0000 0.0000 0.0000 0.0000 0.0000 0.0000 0.0000 0.0000 
</DataArray>
<DataArray type="Float32" Name="Radius" NumberOfComponents="1" format="ascii">
0.2836 0.4013 0.1318 0.2016 0.1180 0.3971 0.2083 0.1983 0.2316 0.1830 0.2083 0.3713 0.4684 0.4068 0.0904 0.1829 0.3563 0.0426 0.3370 0.0706 0.0906 0.2770 0.1479 0.2597 0.1799 0.0357 0.2470 0.1111 0.3861 0.1728 0.2415 0.1488 0.1852 0.4082 0.0789 0.3617 0.1983 0.2946 0.1310 0.1777 0.1186 0.0958 0.1461 0.1204 0.1697 0.2266 0.0285 0.2738 0.2145 0.1500 0.0684 0.3210 0.0978 0.3387 0.0725 0.0663 0.3437 0.1516 0.2290 0.0523 0.2101 0.1609 0.0319 0.2682 0.0319 0.0594 0.1467 0.1322 0.2393 0.1851 0.2074 0.1030 0.1359 0.2829 0.0245 0.0362 0.0912 0.0360 0.0578 0.0281 0.2335 0.3751 0.1181 0.0882 0.3214 0.0469 0.0591 0.0801 0.0418 0.0249 0.0686 0.2172 0.0552 0.1891 0.2694 0.2488 0.1514 0.0359 0.0394 0.1545 0.0395 0.0915 0.0982 0.0338 0.4255 0.1590 0.0297 0.2410 0.0967 0.2990 0.0949 0.2044 0.0293 0.2959 0.0623 0.1153 0.4013 0.0394 0.1161 0.0410 0.0430 0.0311 0.1806 0.2180 0.0308 0.2285 0.2693 0.2762 0.0354 0.2923 0.0539 0.0326 0.0331 0.0287 0.1362 0.0691 0.3517 0.2116 0.0355 0.0407 0.1352 0.1315 0.3295 0.0442 0.1371 0.3589 0.1107 0.0280 0.0997 0.3400 0.0311 0.0302 0.0244 0.0339 0.0381 0.1598 0.0273 0.1295 0.1480 0.0285 0.0812 0.0806 0.0313 0.0323 0.0845 0.0343 0.0294 0.1745 0.0162 0.0255 0.2424 0.0492 0.2341 0.2743 0.1852 0.0231 0.0286 0.0249 0.1995 0.0970 0.1169 0.0313 
</DataArray>
</PointData>
<CellData/>
</Piece>
</UnstructuredGrid>
</VTKFile>
