<?xml version="1.0"?>
<VTKFile type="UnstructuredGrid" version="0.1" byte_order="LittleEndian">
 <UnstructuredGrid>
  <Piece NumberOfPoints="182" NumberOfCells="0">
   <Cells>
    <DataArray type="Int32" name="connectivity" format="ascii">
       0
    </DataArray>
    <DataArray type="Float32" name="offset" format="ascii">
       0
    </DataArray>
    <DataArray type="UInt8" name="types" format="ascii">
       1
    </DataArray>
   </Cells>
   <Points>
<DataArray type="Float32" NumberOfComponents="3" format="ascii">
-0.1147 0.1056 -0.1720 0.0169 0.1743 0.0537 -0.3441 0.0802 0.1245 -0.1352 -0.2459 -0.2767 0.4393 0.1661 0.1718 -0.1033 -0.0544 -0.0710 0.1654 0.3008 -0.1827 0.1994 0.3734 -0.0509 -0.1825 0.2088 -0.0646 0.1865 0.3937 0.0489 0.0522 0.2082 -0.2824 -0.0282 0.1067 -0.1183 0.0452 0.0175 -0.0139 0.0465 0.0846 -0.1159 0.1477 0.2688 -0.4246 -0.2568 -0.0006 0.2072 0.0115 -0.2235 0.0659 0.0983 -0.2032 -0.4456 -0.0543 -0.2393 0.1316 -0.2749 0.3913 -0.0126 0.0239 -0.1338 -0.4587 -0.0274 -0.2545 -0.0813 -0.1178 -0.2143 -0.3847 -0.2802 -0.1614 0.1510 0.4016 0.1001 0.0843 -0.1934 0.5138 0.1934 0.2399 0.1868 0.2059 -0.4822 -0.1058 0.0974 -0.0201 0.0003 0.0959 -0.2824 0.1311 -0.1187 -0.0321 -0.1765 -0.2585 0.0461 0.4367 0.1645 -0.1342 -0.2753 0.2978 0.1152 0.1553 0.0713 0.0476 -0.4207 0.3265 -0.1223 -0.2241 0.0402 -0.1068 0.3862 0.0963 -0.2375 -0.0876 0.1044 -0.0064 0.4821 0.0848 0.1295 -0.2603 -0.1926 -0.4399 -0.0099 0.0133 0.2575 -0.3706 -0.0121 0.0591 -0.3984 0.2399 -0.4157 0.0104 0.0716 0.1364 0.2482 -0.3243 -0.3148 -0.0675 -0.0090 0.0382 0.0611 -0.5986 -0.1728 -0.1013 0.1850 -0.3458 -0.1520 0.0717 -0.1932 0.3683 0.0308 0.1764 -0.4949 0.1618 0.0396 -0.1318 -0.1643 -0.1227 0.4541 0.2190 -0.0077 -0.0136 -0.2142 -0.0001 0.3971 0.3660 0.4236 0.3548 0.0552 0.0224 -0.1663 -0.0888 -0.1899 -0.3451 -0.2264 0.0963 0.3747 0.0605 0.2448 -0.4728 0.0523 0.0373 0.0680 -0.3733 0.1273 0.2902 0.3214 0.2394 0.4455 -0.3151 -0.0734 -0.1336 -0.2742 -0.1782 -0.3327 -0.4606 0.1196 0.2173 -0.5036 -0.0409 -0.0743 -0.4510 -0.3769 0.0760 0.0124 -0.2301 0.1157 0.0242 -0.2240 -0.2041 0.2828 0.0619 0.3045 0.2611 -0.2745 -0.4364 -0.0853 -0.2169 -0.3948 -0.1649 -0.1620 0.0892 0.0971 0.0631 0.1208 -0.5912 -0.5230 -0.1257 0.2217 0.2487 0.2538 0.3812 0.5375 0.0163 0.0258 0.2531 0.4606 -0.2200 -0.0838 -0.1628 -0.5737 0.3140 0.2037 0.0931 -0.0776 -0.1209 0.1079 -0.3607 -0.3480 0.0471 0.0138 0.0250 -0.5244 0.1051 -0.1283 -0.0955 -0.2212 -0.4034 -0.3448 0.1313 -0.5372 0.0953 -0.4365 0.0723 -0.0650 -0.1294 -0.2348 -0.5167 -0.2499 -0.4489 -0.3176 -0.3594 -0.2009 0.3558 0.2331 0.3310 0.0119 0.5078 0.1247 0.2059 0.0885 0.1609 -0.3637 -0.2578 -0.2203 0.0851 0.1594 -0.2300 0.0026 -0.1877 -0.0383 -0.3391 0.5596 0.1025 0.1299 -0.5151 -0.2591 0.0850 0.3929 -0.0022 -0.0019 0.2018 0.3647 -0.4101 -0.0874 -0.5199 0.0510 0.4322 0.1489 0.2430 0.5697 0.0900 0.0924 -0.0127 0.1194 0.0119 0.0920 -0.4106 0.1801 -0.0107 -0.0280 -0.5998 -0.0098 -0.3666 0.0924 0.1934 0.3521 -0.3256 0.2466 0.0628 0.0155 0.1863 -0.4715 0.0903 -0.2960 0.0638 -0.0704 -0.0576 -0.0923 -0.5919 0.0381 -0.1518 0.1575 0.0931 0.1690 -0.5239 0.2036 -0.4065 0.0729 -0.1381 -0.1075 0.0536 -0.1953 -0.3575 -0.4195 0.4681 0.1560 0.1008 -0.0148 -0.4009 0.4060 0.2555 0.4950 -0.1792 -0.1645 -0.2884 -0.4965 -0.2078 -0.2571 -0.2077 -0.3619 -0.1283 0.1027 -0.4881 -0.1457 0.2897 0.3366 0.1425 0.1331 -0.1436 -0.2609 -0.1159 -0.0299 0.3197 0.1162 -0.2191 0.5352 0.0988 -0.1825 -0.2305 0.1364 -0.1032 -0.1879 -0.5261 -0.0709 -0.3739 0.4366 -0.2450 -0.5219 -0.1407 -0.2184 -0.2938 0.4535 -0.2874 0.0883 -0.2315 -0.0893 0.4472 0.2987 0.1405 0.1154 -0.0613 -0.2565 -0.1954 0.2406 0.4472 0.1693 0.3290 -0.3567 -0.4594 -0.0478 0.2622 -0.0158 -0.2926 -0.0020 0.3982 0.2736 0.1177 0.2141 -0.0644 -0.2107 -0.5369 -0.0677 -0.0777 -0.1412 -0.4408 0.1881 0.0931 0.0575 -0.0374 0.4026 0.3000 0.2560 0.4687 -0.2777 -0.2225 -0.2644 0.3782 -0.0891 -0.1620 -0.1420 -0.4480 -0.1675 0.3353 0.1932 0.3422 -0.4508 -0.2566 0.5078 0.0609 -0.2610 -0.4656 -0.2655 -0.5437 -0.0392 0.0461 0.1801 -0.3687 0.0392 -0.3955 -0.4464 -0.0122 0.2237 0.4069 -0.1545 0.1098 0.4026 0.2126 0.1519 0.2822 -0.5079 -0.2843 0.0062 -0.3486 -0.2873 0.0712 -0.3251 -0.1454 -0.5741 0.0058 0.5503 0.1120 0.1709 0.1721 0.5102 -0.0144 0.2181 0.2953 0.4477 -0.2136 -0.3959 -0.3966 0.1041 -0.0705 0.2841 0.0935 -0.5916 0.0839 -0.1795 -0.5706 -0.0283 -0.1800 -0.2221 0.2359 -0.1672 -0.0405 -0.4796 0.1328 0.2414 -0.2263 -0.1415 0.0451 0.1558 0.0823 -0.4129 0.1039 0.4174 0.1860 0.3741 -0.5065 -0.3032 0.0720 -0.0362 -0.0618 -0.6023 0.1823 0.2424 0.2809 -0.3008 0.2054 -0.1919 -0.2191 -0.4514 -0.0822 -0.0923 0.5766 0.0867 
</DataArray>
    </Points>
    <PointData>
<DataArray type="Float32" Name="Position" NumberOfComponents="3" format="ascii">
-0.1147 0.1056 -0.1720 0.0169 0.1743 0.0537 -0.3441 0.0802 0.1245 -0.1352 -0.2459 -0.2767 0.4393 0.1661 0.1718 -0.1033 -0.0544 -0.0710 0.1654 0.3008 -0.1827 0.1994 0.3734 -0.0509 -0.1825 0.2088 -0.0646 0.1865 0.3937 0.0489 0.0522 0.2082 -0.2824 -0.0282 0.1067 -0.1183 0.0452 0.0175 -0.0139 0.0465 0.0846 -0.1159 0.1477 0.2688 -0.4246 -0.2568 -0.0006 0.2072 0.0115 -0.2235 0.0659 0.0983 -0.2032 -0.4456 -0.0543 -0.2393 0.1316 -0.2749 0.3913 -0.0126 0.0239 -0.1338 -0.4587 -0.0274 -0.2545 -0.0813 -0.1178 -0.2143 -0.3847 -0.2802 -0.1614 0.1510 0.4016 0.1001 0.0843 -0.1934 0.5138 0.1934 0.2399 0.1868 0.2059 -0.4822 -0.1058 0.0974 -0.0201 0.0003 0.0959 -0.2824 0.1311 -0.1187 -0.0321 -0.1765 -0.2585 0.0461 0.4367 0.1645 -0.1342 -0.2753 0.2978 0.1152 0.1553 0.0713 0.0476 -0.4207 0.3265 -0.1223 -0.2241 0.0402 -0.1068 0.3862 0.0963 -0.2375 -0.0876 0.1044 -0.0064 0.4821 0.0848 0.1295 -0.2603 -0.1926 -0.4399 -0.0099 0.0133 0.2575 -0.3706 -0.0121 0.0591 -0.3984 0.2399 -0.4157 0.0104 0.0716 0.1364 0.2482 -0.3243 -0.3148 -0.0675 -0.0090 0.0382 0.0611 -0.5986 -0.1728 -0.1013 0.1850 -0.3458 -0.1520 0.0717 -0.1932 0.3683 0.0308 0.1764 -0.4949 0.1618 0.0396 -0.1318 -0.1643 -0.1227 0.4541 0.2190 -0.0077 -0.0136 -0.2142 -0.0001 0.3971 0.3660 0.4236 0.3548 0.0552 0.0224 -0.1663 -0.0888 -0.1899 -0.3451 -0.2264 0.0963 0.3747 0.0605 0.2448 -0.4728 0.0523 0.0373 0.0680 -0.3733 0.1273 0.2902 0.3214 0.2394 0.4455 -0.3151 -0.0734 -0.1336 -0.2742 -0.1782 -0.3327 -0.4606 0.1196 0.2173 -0.5036 -0.0409 -0.0743 -0.4510 -0.3769 0.0760 0.0124 -0.2301 0.1157 0.0242 -0.2240 -0.2041 0.2828 0.0619 0.3045 0.2611 -0.2745 -0.4364 -0.0853 -0.2169 -0.3948 -0.1649 -0.1620 0.0892 0.0971 0.0631 0.1208 -0.5912 -0.5230 -0.1257 0.2217 0.2487 0.2538 0.3812 0.5375 0.0163 0.0258 0.2531 0.4606 -0.2200 -0.0838 -0.1628 -0.5737 0.3140 0.2037 0.0931 -0.0776 -0.1209 0.1079 -0.3607 -0.3480 0.0471 0.0138 0.0250 -0.5244 0.1051 -0.1283 -0.0955 -0.2212 -0.4034 -0.3448 0.1313 -0.5372 0.0953 -0.4365 0.0723 -0.0650 -0.1294 -0.2348 -0.5167 -0.2499 -0.4489 -0.3176 -0.3594 -0.2009 0.3558 0.2331 0.3310 0.0119 0.5078 0.1247 0.2059 0.0885 0.1609 -0.3637 -0.2578 -0.2203 0.0851 0.1594 -0.2300 0.0026 -0.1877 -0.0383 -0.3391 0.5596 0.1025 0.1299 -0.5151 -0.2591 0.0850 0.3929 -0.0022 -0.0019 0.2018 0.3647 -0.4101 -0.0874 -0.5199 0.0510 0.4322 0.1489 0.2430 0.5697 0.0900 0.0924 -0.0127 0.1194 0.0119 0.0920 -0.4106 0.1801 -0.0107 -0.0280 -0.5998 -0.0098 -0.3666 0.0924 0.1934 0.3521 -0.3256 0.2466 0.0628 0.0155 0.1863 -0.4715 0.0903 -0.2960 0.0638 -0.0704 -0.0576 -0.0923 -0.5919 0.0381 -0.1518 0.1575 0.0931 0.1690 -0.5239 0.2036 -0.4065 0.0729 -0.1381 -0.1075 0.0536 -0.1953 -0.3575 -0.4195 0.4681 0.1560 0.1008 -0.0148 -0.4009 0.4060 0.2555 0.4950 -0.1792 -0.1645 -0.2884 -0.4965 -0.2078 -0.2571 -0.2077 -0.3619 -0.1283 0.1027 -0.4881 -0.1457 0.2897 0.3366 0.1425 0.1331 -0.1436 -0.2609 -0.1159 -0.0299 0.3197 0.1162 -0.2191 0.5352 0.0988 -0.1825 -0.2305 0.1364 -0.1032 -0.1879 -0.5261 -0.0709 -0.3739 0.4366 -0.2450 -0.5219 -0.1407 -0.2184 -0.2938 0.4535 -0.2874 0.0883 -0.2315 -0.0893 0.4472 0.2987 0.1405 0.1154 -0.0613 -0.2565 -0.1954 0.2406 0.4472 0.1693 0.3290 -0.3567 -0.4594 -0.0478 0.2622 -0.0158 -0.2926 -0.0020 0.3982 0.2736 0.1177 0.2141 -0.0644 -0.2107 -0.5369 -0.0677 -0.0777 -0.1412 -0.4408 0.1881 0.0931 0.0575 -0.0374 0.4026 0.3000 0.2560 0.4687 -0.2777 -0.2225 -0.2644 0.3782 -0.0891 -0.1620 -0.1420 -0.4480 -0.1675 0.3353 0.1932 0.3422 -0.4508 -0.2566 0.5078 0.0609 -0.2610 -0.4656 -0.2655 -0.5437 -0.0392 0.0461 0.1801 -0.3687 0.0392 -0.3955 -0.4464 -0.0122 0.2237 0.4069 -0.1545 0.1098 0.4026 0.2126 0.1519 0.2822 -0.5079 -0.2843 0.0062 -0.3486 -0.2873 0.0712 -0.3251 -0.1454 -0.5741 0.0058 0.5503 0.1120 0.1709 0.1721 0.5102 -0.0144 0.2181 0.2953 0.4477 -0.2136 -0.3959 -0.3966 0.1041 -0.0705 0.2841 0.0935 -0.5916 0.0839 -0.1795 -0.5706 -0.0283 -0.1800 -0.2221 0.2359 -0.1672 -0.0405 -0.4796 0.1328 0.2414 -0.2263 -0.1415 0.0451 0.1558 0.0823 -0.4129 0.1039 0.4174 0.1860 0.3741 -0.5065 -0.3032 0.0720 -0.0362 -0.0618 -0.6023 0.1823 0.2424 0.2809 -0.3008 0.2054 -0.1919 -0.2191 -0.4514 -0.0822 -0.0923 0.5766 0.0867 
</DataArray>
<DataArray type="Float32" Name="Velocity" NumberOfComponents="3" format="ascii">
0.0000 0.0000 0.0000 0.0000 0.0000 0.0000 0.0000 0.0000 0.0000 0.0000 0.0000 0.0000 0.0000 0.0000 0.0000 0.0000 0.0000 0.0000 0.0000 0.0000 0.0000 0.0000 0.0000 0.0000 0.0000 0.0000 0.0000 0.0000 0.0000 0.0000 0.0000 0.0000 0.0000 0.0000 0.0000 0.0000 0.0000 0.0000 0.0000 0.0000 0.0000 0.0000 0.0000 0.0000 0.0000 0.0000 0.0000 0.0000 0.0000 0.0000 0.0000 0.0000 0.0000 0.0000 0.0000 0.0000 0.0000 0.0000 0.0000 0.0000 0.0000 0.0000 0.0000 0.0000 0.0000 0.0000 0.0000 0.0000 0.0000 0.0000 0.0000 0.0000 0.0000 0.0000 0.0000 0.0000 0.0000 0.0000 0.0000 0.0000 0.0000 0.0000 0.0000 0.0000 0.0000 0.0000 0.0000 0.0000 0.0000 0.0000 0.0000 0.0000 0.0000 0.0000 0.0000 0.0000 0.0000 0.0000 0.0000 0.0000 0.0000 0.0000 0.0000 0.0000 0.0000 0.0000 0.0000 0.0000 0.0000 0.0000 0.0000 0.0000 0.0000 0.0000 0.0000 0.0000 0.0000 0.0000 0.0000 0.0000 0.0000 0.0000 0.0000 0.0000 0.0000 0.0000 0.0000 0.0000 0.0000 0.0000 0.0000 0.0000 0.0000 0.0000 0.0000 0.0000 0.0000 0.0000 0.0000 0.0000 0.0000 0.0000 0.0000 0.0000 0.0000 0.0000 0.0000 0.0000 0.0000 0.0000 0.0000 0.0000 0.0000 0.0000 0.0000 0.0000 0.0000 0.0000 0.0000 0.0000 0.0000 0.0000 0.0000 0.0000 0.0000 0.0000 0.0000 0.0000 0.0000 0.0000 0.0000 0.0000 0.0000 0.0000 0.0000 0.0000 0.0000 0.0000 0.0000 0.0000 0.0000 0.0000 0.0000 0.0000 0.0000 0.0000 0.0000 0.0000 0.0000 0.0000 0.0000 0.0000 0.0000 0.0000 0.0000 0.0000 0.0000 0.0000 0.0000 0.0000 0.0000 0.0000 0.0000 0.0000 0.0000 0.0000 0.0000 0.0000 0.0000 0.0000 0.0000 0.0000 0.0000 0.0000 0.0000 0.0000 0.0000 0.0000 0.0000 0.0000 0.0000 0.0000 0.0000 0.0000 0.0000 0.0000 0.0000 0.0000 0.0000 0.0000 0.0000 0.0000 0.0000 0.0000 0.0000 0.0000 0.0000 0.0000 0.0000 0.0000 0.0000 0.0000 0.0000 0.0000 0.0000 0.0000 0.0000 0.0000 0.0000 0.0000 0.0000 0.0000 0.0000 0.0000 0.0000 0.0000 0.0000 0.0000 0.0000 0.0000 0.0000 0.0000 0.0000 0.0000 0.0000 0.0000 0.0000 0.0000 0.0000 0.0000 0.0000 0.0000 0.0000 0.0000 0.0000 0.0000 0.0000 0.0000 0.0000 0.0000 0.0000 0.0000 0.0000 0.0000 0.0000 0.0000 0.0000 0.0000 0.0000 0.0000 0.0000 0.0000 0.0000 0.0000 0.0000 0.0000 0.0000 0.0000 0.0000 0.0000 0.0000 0.0000 0.0000 0.0000 0.0000 0.0000 0.0000 0.0000 0.0000 0.0000 0.0000 0.0000 0.0000 0.0000 0.0000 0.0000 0.0000 0.0000 0.0000 0.0000 0.0000 0.0000 0.0000 0.0000 0.0000 0.0000 0.0000 0.0000 0.0000 0.0000 0.0000 0.0000 0.0000 0.0000 0.0000 0.0000 0.0000 0.0000 0.0000 0.0000 0.0000 0.0000 0.0000 0.0000 0.0000 0.0000 0.0000 0.0000 0.0000 0.0000 0.0000 0.0000 0.0000 0.0000 0.0000 0.0000 0.0000 0.0000 0.0000 0.0000 0.0000 0.0000 0.0000 0.0000 0.0000 0.0000 0.0000 0.0000 0.0000 0.0000 0.0000 0.0000 0.0000 0.0000 0.0000 0.0000 0.0000 0.0000 0.0000 0.0000 0.0000 0.0000 0.0000 0.0000 0.0000 0.0000 0.0000 0.0000 0.0000 0.0000 0.0000 0.0000 0.0000 0.0000 0.0000 0.0000 0.0000 0.0000 0.0000 0.0000 0.0000 0.0000 0.0000 0.0000 0.0000 0.0000 0.0000 0.0000 0.0000 0.0000 0.0000 0.0000 0.0000 0.0000 0.0000 0.0000 0.0000 0.0000 0.0000 0.0000 0.0000 0.0000 0.0000 0.0000 0.0000 0.0000 0.0000 0.0000 0.0000 0.0000 0.0000 0.0000 0.0000 0.0000 0.0000 0.0000 0.0000 0.0000 0.0000 0.0000 0.0000 0.0000 0.0000 0.0000 0.0000 0.0000 0.0000 0.0000 0.0000 0.0000 0.0000 0.0000 0.0000 0.0000 0.0000 0.0000 0.0000 0.0000 0.0000 0.0000 0.0000 0.0000 0.0000 0.0000 0.0000 0.0000 0.0000 0.0000 0.0000 0.0000 0.0000 0.0000 0.0000 0.0000 0.0000 0.0000 0.0000 0.0000 0.0000 0.0000 0.0000 0.0000 0.0000 0.0000 0.0000 0.0000 0.0000 0.0000 0.0000 0.0000 0.0000 0.0000 0.0000 0.0000 0.0000 0.0000 0.0000 0.0000 0.0000 0.0000 0.0000 0.0000 0.0000 0.0000 0.0000 0.0000 0.0000 0.0000 0.0000 0.0000 0.0000 0.0000 0.0000 0.0000 0.0000 0.0000 0.0000 0.0000 0.0000 0.0000 0.0000 0.0000 0.0000 0.0000 0.0000 0.0000 0.0000 0.0000 0.0000 0.0000 0.0000 0.0000 0.0000 0.0000 0.0000 0.0000 0.0000 0.0000 0.0000 0.0000 0.0000 0.0000 0.0000 0.0000 0.0000 0.0000 
</DataArray>
<DataArray type="Float32" Name="Radius" NumberOfComponents="1" format="ascii">
0.2836 0.4013 0.1318 0.2016 0.1180 0.3971 0.2083 0.1983 0.2316 0.1830 0.2083 0.3713 0.4684 0.4068 0.0904 0.1829 0.3563 0.0426 0.3370 0.0706 0.0906 0.2770 0.1479 0.2597 0.1799 0.0357 0.2470 0.1111 0.3861 0.1728 0.2415 0.1488 0.1852 0.4082 0.0789 0.3617 0.1983 0.2946 0.1310 0.1777 0.1186 0.0958 0.1461 0.1204 0.1697 0.2266 0.0285 0.2738 0.2145 0.1500 0.0684 0.3210 0.0978 0.3387 0.0725 0.0663 0.3437 0.1516 0.2290 0.0523 0.2101 0.1609 0.0319 0.2682 0.0319 0.0594 0.1467 0.1322 0.2393 0.1851 0.2074 0.1030 0.1359 0.2829 0.0245 0.0362 0.0912 0.0360 0.0578 0.0281 0.2335 0.3751 0.1181 0.0882 0.3214 0.0469 0.0591 0.0801 0.0418 0.0249 0.0686 0.2172 0.0552 0.1891 0.2694 0.2488 0.1514 0.0359 0.0394 0.1545 0.0395 0.0915 0.0982 0.0338 0.4255 0.1590 0.0297 0.2410 0.0967 0.2990 0.0949 0.2044 0.0293 0.2959 0.0623 0.1153 0.4013 0.0394 0.1161 0.0410 0.0430 0.0311 0.1806 0.2180 0.0308 0.2285 0.2693 0.2762 0.0354 0.2923 0.0539 0.0326 0.0331 0.0287 0.1362 0.0691 0.3517 0.2116 0.0355 0.0407 0.1352 0.1315 0.3295 0.0442 0.1371 0.3589 0.1107 0.0280 0.0997 0.3400 0.0311 0.0302 0.0244 0.0339 0.0381 0.1598 0.0273 0.1295 0.1480 0.0285 0.0812 0.0806 0.0313 0.0323 0.0845 0.0343 0.0294 0.1745 0.0162 0.0255 0.2424 0.0492 0.2341 0.2743 0.1852 0.0231 0.0286 0.0249 0.1995 0.0970 0.1169 0.0313 
</DataArray>
</PointData>
<CellData/>
</Piece>
</UnstructuredGrid>
</VTKFile>
