<?xml version="1.0"?>
<VTKFile type="UnstructuredGrid" version="0.1" byte_order="LittleEndian">
 <UnstructuredGrid>
  <Piece NumberOfPoints="182" NumberOfCells="0">
   <Cells>
    <DataArray type="Int32" name="connectivity" format="ascii">
       0
    </DataArray>
    <DataArray type="Float32" name="offset" format="ascii">
       0
    </DataArray>
    <DataArray type="UInt8" name="types" format="ascii">
       1
    </DataArray>
   </Cells>
   <Points>
<DataArray type="Float32" NumberOfComponents="3" format="ascii">
0.0402 -0.1506 -0.1720 -0.1077 -0.1381 0.0537 0.2476 -0.2521 0.1245 0.2459 0.1351 -0.2767 -0.4599 0.0952 0.1718 0.1164 -0.0094 -0.0710 -0.3008 -0.1654 -0.1827 -0.3684 -0.2084 -0.0509 0.0422 -0.2741 -0.0646 -0.3685 -0.2325 0.0489 -0.1556 -0.1478 -0.2824 -0.0333 -0.1052 -0.1183 -0.0476 0.0095 -0.0139 -0.0845 -0.0465 -0.1159 -0.2687 -0.1478 -0.4246 0.2172 -0.1372 0.2072 0.1101 0.1949 0.0659 0.0258 0.2242 -0.4456 0.1741 0.1730 0.1316 0.0224 -0.4776 -0.0126 0.0515 0.1258 -0.4587 0.1595 0.2002 -0.0813 0.2143 0.1178 -0.3847 0.3230 -0.0139 0.1510 -0.3927 0.1306 0.0843 -0.1120 -0.5375 0.1934 -0.3026 -0.0292 0.2059 0.4639 -0.1691 0.0974 0.0169 -0.0110 0.0959 0.1682 -0.2620 -0.1187 0.1216 0.1318 -0.2585 -0.2730 -0.3440 0.1645 0.2609 0.1605 0.2978 -0.1805 -0.0694 0.0713 0.1853 0.3807 0.3265 0.2233 0.1237 0.0402 -0.1168 -0.3833 0.0963 0.2474 -0.0533 0.1044 -0.2529 -0.4104 0.0848 0.0302 0.2891 -0.1926 0.3767 -0.2273 0.0133 -0.0188 0.4508 -0.0121 0.1635 0.3681 0.2399 0.3454 -0.2315 0.0716 -0.2482 -0.1364 -0.3243 0.3020 -0.1116 -0.0090 -0.0650 -0.0311 -0.5986 0.2002 -0.0070 0.1850 0.3734 -0.0569 0.0717 -0.0343 -0.4145 0.0308 0.1163 0.5124 0.1618 0.0372 0.1325 -0.1643 -0.1397 -0.4491 0.2190 0.0138 0.0073 -0.2142 -0.2127 -0.3353 0.3660 -0.5478 -0.0726 0.0552 0.0702 0.1524 -0.0888 0.3452 0.1896 -0.2264 -0.2820 -0.2648 0.0605 0.0466 0.5304 0.0523 -0.0679 -0.0374 -0.3733 -0.2630 -0.1769 0.3214 -0.4408 -0.2478 -0.3151 0.1336 0.0734 -0.2742 0.3287 0.1854 -0.4606 -0.2174 -0.1194 -0.5036 0.0744 0.0408 -0.4510 0.2775 -0.2661 0.0124 0.1322 -0.2210 0.0242 0.2985 0.0523 0.2828 -0.2154 -0.2239 0.2611 0.4655 0.2214 -0.0853 0.3946 0.2171 -0.1649 0.0890 -0.1621 0.0971 -0.1180 -0.0682 -0.5912 0.5089 -0.1741 0.2217 -0.3460 -0.0811 0.3812 -0.4626 0.2742 0.0258 -0.4605 -0.2533 -0.2200 0.1580 0.0926 -0.5737 -0.3742 -0.0037 0.0931 0.1303 0.0605 0.1079 0.4910 0.1006 0.0471 -0.0251 -0.0137 -0.5244 -0.0200 0.1646 -0.0955 0.4029 0.2221 -0.3448 0.1770 0.5239 0.0953 0.3298 -0.2949 -0.0650 0.2351 0.1289 -0.5167 0.4515 0.2451 -0.3176 0.4111 -0.0230 0.3558 -0.3742 -0.1546 0.0119 -0.4955 0.1668 0.2059 -0.1609 -0.0884 -0.3637 0.3357 0.0479 0.0851 -0.0114 0.2796 0.0026 0.1790 -0.0682 -0.3391 -0.5274 0.2133 0.1299 0.5738 -0.0572 0.0850 -0.3306 0.2124 -0.0019 -0.3658 -0.1998 -0.4101 0.3524 0.3921 0.0510 -0.4448 0.1059 0.2430 -0.5292 0.2293 0.0924 -0.0532 -0.1076 0.0119 0.1423 0.3960 0.1801 0.0240 0.0179 -0.5998 0.2047 0.3043 0.0924 -0.3519 -0.1936 -0.3256 -0.2419 0.0791 0.0155 0.0954 0.4980 0.0903 0.2157 -0.2124 -0.0704 0.0981 0.0471 -0.5919 0.0492 0.1486 0.1575 -0.1692 -0.0928 -0.5239 0.0459 0.4523 0.0729 0.1742 0.0168 0.0536 0.3565 0.1972 -0.4195 -0.4789 0.1191 0.1008 0.2273 0.3305 0.4060 -0.4810 -0.2810 -0.1792 0.2934 0.1553 -0.4965 0.3132 0.1058 -0.2077 0.3743 -0.0855 0.1027 0.4902 -0.1385 0.2897 -0.3605 0.0601 0.1331 0.2611 0.1434 -0.1159 -0.1461 -0.2859 0.1162 -0.1018 -0.5693 0.0988 0.2776 0.0969 0.1364 0.1878 0.1033 -0.5261 0.2602 0.2777 0.4366 0.4865 0.3094 -0.1407 0.3418 0.1311 0.4535 0.1954 -0.2286 -0.2315 -0.1642 -0.4255 0.2987 -0.1805 -0.0221 -0.0613 0.3213 0.0275 0.2406 -0.4683 0.0966 0.3290 0.5473 0.1968 -0.0478 -0.2129 0.1539 -0.2926 -0.2117 -0.3373 0.2736 -0.2141 -0.1177 -0.0644 0.4655 0.3404 -0.0677 0.1412 0.0776 -0.4408 -0.2087 0.0222 0.0575 -0.1842 -0.3599 0.3000 -0.4673 -0.2586 -0.2777 0.3296 0.1040 0.3782 0.1620 0.0890 -0.1420 0.4681 -0.0986 0.3353 -0.3465 -0.1854 -0.4508 -0.0554 -0.5662 0.0609 0.4699 0.2533 -0.2655 0.4801 -0.2582 0.0461 0.0455 0.4077 0.0392 0.5731 0.1650 -0.0122 -0.4069 -0.2237 -0.1545 -0.3084 -0.2811 0.2126 -0.2795 -0.1569 -0.5079 0.2368 -0.1576 -0.3486 0.2045 -0.2140 -0.3251 0.4303 0.4068 0.0058 -0.5246 0.2003 0.1709 -0.4187 -0.3386 -0.0144 -0.3424 -0.1325 0.4477 0.3924 0.2198 -0.3966 -0.0502 0.1153 0.2841 0.2381 0.5496 0.0839 0.4573 0.3856 -0.0283 0.2710 0.0911 0.2359 0.1628 -0.0554 -0.4796 -0.2415 -0.1327 -0.2263 0.0953 -0.1139 0.1558 0.1518 0.3928 0.1039 -0.4521 0.0666 0.3741 0.5901 -0.0154 0.0720 0.0637 0.0328 -0.6023 -0.2837 -0.1070 0.2809 0.1439 -0.3346 -0.1919 0.4268 0.2637 -0.0822 -0.2310 -0.5363 0.0867 
</DataArray>
    </Points>
    <PointData>
<DataArray type="Float32" Name="Position" NumberOfComponents="3" format="ascii">
0.0402 -0.1506 -0.1720 -0.1077 -0.1381 0.0537 0.2476 -0.2521 0.1245 0.2459 0.1351 -0.2767 -0.4599 0.0952 0.1718 0.1164 -0.0094 -0.0710 -0.3008 -0.1654 -0.1827 -0.3684 -0.2084 -0.0509 0.0422 -0.2741 -0.0646 -0.3685 -0.2325 0.0489 -0.1556 -0.1478 -0.2824 -0.0333 -0.1052 -0.1183 -0.0476 0.0095 -0.0139 -0.0845 -0.0465 -0.1159 -0.2687 -0.1478 -0.4246 0.2172 -0.1372 0.2072 0.1101 0.1949 0.0659 0.0258 0.2242 -0.4456 0.1741 0.1730 0.1316 0.0224 -0.4776 -0.0126 0.0515 0.1258 -0.4587 0.1595 0.2002 -0.0813 0.2143 0.1178 -0.3847 0.3230 -0.0139 0.1510 -0.3927 0.1306 0.0843 -0.1120 -0.5375 0.1934 -0.3026 -0.0292 0.2059 0.4639 -0.1691 0.0974 0.0169 -0.0110 0.0959 0.1682 -0.2620 -0.1187 0.1216 0.1318 -0.2585 -0.2730 -0.3440 0.1645 0.2609 0.1605 0.2978 -0.1805 -0.0694 0.0713 0.1853 0.3807 0.3265 0.2233 0.1237 0.0402 -0.1168 -0.3833 0.0963 0.2474 -0.0533 0.1044 -0.2529 -0.4104 0.0848 0.0302 0.2891 -0.1926 0.3767 -0.2273 0.0133 -0.0188 0.4508 -0.0121 0.1635 0.3681 0.2399 0.3454 -0.2315 0.0716 -0.2482 -0.1364 -0.3243 0.3020 -0.1116 -0.0090 -0.0650 -0.0311 -0.5986 0.2002 -0.0070 0.1850 0.3734 -0.0569 0.0717 -0.0343 -0.4145 0.0308 0.1163 0.5124 0.1618 0.0372 0.1325 -0.1643 -0.1397 -0.4491 0.2190 0.0138 0.0073 -0.2142 -0.2127 -0.3353 0.3660 -0.5478 -0.0726 0.0552 0.0702 0.1524 -0.0888 0.3452 0.1896 -0.2264 -0.2820 -0.2648 0.0605 0.0466 0.5304 0.0523 -0.0679 -0.0374 -0.3733 -0.2630 -0.1769 0.3214 -0.4408 -0.2478 -0.3151 0.1336 0.0734 -0.2742 0.3287 0.1854 -0.4606 -0.2174 -0.1194 -0.5036 0.0744 0.0408 -0.4510 0.2775 -0.2661 0.0124 0.1322 -0.2210 0.0242 0.2985 0.0523 0.2828 -0.2154 -0.2239 0.2611 0.4655 0.2214 -0.0853 0.3946 0.2171 -0.1649 0.0890 -0.1621 0.0971 -0.1180 -0.0682 -0.5912 0.5089 -0.1741 0.2217 -0.3460 -0.0811 0.3812 -0.4626 0.2742 0.0258 -0.4605 -0.2533 -0.2200 0.1580 0.0926 -0.5737 -0.3742 -0.0037 0.0931 0.1303 0.0605 0.1079 0.4910 0.1006 0.0471 -0.0251 -0.0137 -0.5244 -0.0200 0.1646 -0.0955 0.4029 0.2221 -0.3448 0.1770 0.5239 0.0953 0.3298 -0.2949 -0.0650 0.2351 0.1289 -0.5167 0.4515 0.2451 -0.3176 0.4111 -0.0230 0.3558 -0.3742 -0.1546 0.0119 -0.4955 0.1668 0.2059 -0.1609 -0.0884 -0.3637 0.3357 0.0479 0.0851 -0.0114 0.2796 0.0026 0.1790 -0.0682 -0.3391 -0.5274 0.2133 0.1299 0.5738 -0.0572 0.0850 -0.3306 0.2124 -0.0019 -0.3658 -0.1998 -0.4101 0.3524 0.3921 0.0510 -0.4448 0.1059 0.2430 -0.5292 0.2293 0.0924 -0.0532 -0.1076 0.0119 0.1423 0.3960 0.1801 0.0240 0.0179 -0.5998 0.2047 0.3043 0.0924 -0.3519 -0.1936 -0.3256 -0.2419 0.0791 0.0155 0.0954 0.4980 0.0903 0.2157 -0.2124 -0.0704 0.0981 0.0471 -0.5919 0.0492 0.1486 0.1575 -0.1692 -0.0928 -0.5239 0.0459 0.4523 0.0729 0.1742 0.0168 0.0536 0.3565 0.1972 -0.4195 -0.4789 0.1191 0.1008 0.2273 0.3305 0.4060 -0.4810 -0.2810 -0.1792 0.2934 0.1553 -0.4965 0.3132 0.1058 -0.2077 0.3743 -0.0855 0.1027 0.4902 -0.1385 0.2897 -0.3605 0.0601 0.1331 0.2611 0.1434 -0.1159 -0.1461 -0.2859 0.1162 -0.1018 -0.5693 0.0988 0.2776 0.0969 0.1364 0.1878 0.1033 -0.5261 0.2602 0.2777 0.4366 0.4865 0.3094 -0.1407 0.3418 0.1311 0.4535 0.1954 -0.2286 -0.2315 -0.1642 -0.4255 0.2987 -0.1805 -0.0221 -0.0613 0.3213 0.0275 0.2406 -0.4683 0.0966 0.3290 0.5473 0.1968 -0.0478 -0.2129 0.1539 -0.2926 -0.2117 -0.3373 0.2736 -0.2141 -0.1177 -0.0644 0.4655 0.3404 -0.0677 0.1412 0.0776 -0.4408 -0.2087 0.0222 0.0575 -0.1842 -0.3599 0.3000 -0.4673 -0.2586 -0.2777 0.3296 0.1040 0.3782 0.1620 0.0890 -0.1420 0.4681 -0.0986 0.3353 -0.3465 -0.1854 -0.4508 -0.0554 -0.5662 0.0609 0.4699 0.2533 -0.2655 0.4801 -0.2582 0.0461 0.0455 0.4077 0.0392 0.5731 0.1650 -0.0122 -0.4069 -0.2237 -0.1545 -0.3084 -0.2811 0.2126 -0.2795 -0.1569 -0.5079 0.2368 -0.1576 -0.3486 0.2045 -0.2140 -0.3251 0.4303 0.4068 0.0058 -0.5246 0.2003 0.1709 -0.4187 -0.3386 -0.0144 -0.3424 -0.1325 0.4477 0.3924 0.2198 -0.3966 -0.0502 0.1153 0.2841 0.2381 0.5496 0.0839 0.4573 0.3856 -0.0283 0.2710 0.0911 0.2359 0.1628 -0.0554 -0.4796 -0.2415 -0.1327 -0.2263 0.0953 -0.1139 0.1558 0.1518 0.3928 0.1039 -0.4521 0.0666 0.3741 0.5901 -0.0154 0.0720 0.0637 0.0328 -0.6023 -0.2837 -0.1070 0.2809 0.1439 -0.3346 -0.1919 0.4268 0.2637 -0.0822 -0.2310 -0.5363 0.0867 
</DataArray>
<DataArray type="Float32" Name="Velocity" NumberOfComponents="3" format="ascii">
0.0000 0.0000 0.0000 0.0000 0.0000 0.0000 0.0000 0.0000 0.0000 0.0000 0.0000 0.0000 0.0000 0.0000 0.0000 0.0000 0.0000 0.0000 0.0000 0.0000 0.0000 0.0000 0.0000 0.0000 0.0000 0.0000 0.0000 0.0000 0.0000 0.0000 0.0000 0.0000 0.0000 0.0000 0.0000 0.0000 0.0000 0.0000 0.0000 0.0000 0.0000 0.0000 0.0000 0.0000 0.0000 0.0000 0.0000 0.0000 0.0000 0.0000 0.0000 0.0000 0.0000 0.0000 0.0000 0.0000 0.0000 0.0000 0.0000 0.0000 0.0000 0.0000 0.0000 0.0000 0.0000 0.0000 0.0000 0.0000 0.0000 0.0000 0.0000 0.0000 0.0000 0.0000 0.0000 0.0000 0.0000 0.0000 0.0000 0.0000 0.0000 0.0000 0.0000 0.0000 0.0000 0.0000 0.0000 0.0000 0.0000 0.0000 0.0000 0.0000 0.0000 0.0000 0.0000 0.0000 0.0000 0.0000 0.0000 0.0000 0.0000 0.0000 0.0000 0.0000 0.0000 0.0000 0.0000 0.0000 0.0000 0.0000 0.0000 0.0000 0.0000 0.0000 0.0000 0.0000 0.0000 0.0000 0.0000 0.0000 0.0000 0.0000 0.0000 0.0000 0.0000 0.0000 0.0000 0.0000 0.0000 0.0000 0.0000 0.0000 0.0000 0.0000 0.0000 0.0000 0.0000 0.0000 0.0000 0.0000 0.0000 0.0000 0.0000 0.0000 0.0000 0.0000 0.0000 0.0000 0.0000 0.0000 0.0000 0.0000 0.0000 0.0000 0.0000 0.0000 0.0000 0.0000 0.0000 0.0000 0.0000 0.0000 0.0000 0.0000 0.0000 0.0000 0.0000 0.0000 0.0000 0.0000 0.0000 0.0000 0.0000 0.0000 0.0000 0.0000 0.0000 0.0000 0.0000 0.0000 0.0000 0.0000 0.0000 0.0000 0.0000 0.0000 0.0000 0.0000 0.0000 0.0000 0.0000 0.0000 0.0000 0.0000 0.0000 0.0000 0.0000 0.0000 0.0000 0.0000 0.0000 0.0000 0.0000 0.0000 0.0000 0.0000 0.0000 0.0000 0.0000 0.0000 0.0000 0.0000 0.0000 0.0000 0.0000 0.0000 0.0000 0.0000 0.0000 0.0000 0.0000 0.0000 0.0000 0.0000 0.0000 0.0000 0.0000 0.0000 0.0000 0.0000 0.0000 0.0000 0.0000 0.0000 0.0000 0.0000 0.0000 0.0000 0.0000 0.0000 0.0000 0.0000 0.0000 0.0000 0.0000 0.0000 0.0000 0.0000 0.0000 0.0000 0.0000 0.0000 0.0000 0.0000 0.0000 0.0000 0.0000 0.0000 0.0000 0.0000 0.0000 0.0000 0.0000 0.0000 0.0000 0.0000 0.0000 0.0000 0.0000 0.0000 0.0000 0.0000 0.0000 0.0000 0.0000 0.0000 0.0000 0.0000 0.0000 0.0000 0.0000 0.0000 0.0000 0.0000 0.0000 0.0000 0.0000 0.0000 0.0000 0.0000 0.0000 0.0000 0.0000 0.0000 0.0000 0.0000 0.0000 0.0000 0.0000 0.0000 0.0000 0.0000 0.0000 0.0000 0.0000 0.0000 0.0000 0.0000 0.0000 0.0000 0.0000 0.0000 0.0000 0.0000 0.0000 0.0000 0.0000 0.0000 0.0000 0.0000 0.0000 0.0000 0.0000 0.0000 0.0000 0.0000 0.0000 0.0000 0.0000 0.0000 0.0000 0.0000 0.0000 0.0000 0.0000 0.0000 0.0000 0.0000 0.0000 0.0000 0.0000 0.0000 0.0000 0.0000 0.0000 0.0000 0.0000 0.0000 0.0000 0.0000 0.0000 0.0000 0.0000 0.0000 0.0000 0.0000 0.0000 0.0000 0.0000 0.0000 0.0000 0.0000 0.0000 0.0000 0.0000 0.0000 0.0000 0.0000 0.0000 0.0000 0.0000 0.0000 0.0000 0.0000 0.0000 0.0000 0.0000 0.0000 0.0000 0.0000 0.0000 0.0000 0.0000 0.0000 0.0000 0.0000 0.0000 0.0000 0.0000 0.0000 0.0000 0.0000 0.0000 0.0000 0.0000 0.0000 0.0000 0.0000 0.0000 0.0000 0.0000 0.0000 0.0000 0.0000 0.0000 0.0000 0.0000 0.0000 0.0000 0.0000 0.0000 0.0000 0.0000 0.0000 0.0000 0.0000 0.0000 0.0000 0.0000 0.0000 0.0000 0.0000 0.0000 0.0000 0.0000 0.0000 0.0000 0.0000 0.0000 0.0000 0.0000 0.0000 0.0000 0.0000 0.0000 0.0000 0.0000 0.0000 0.0000 0.0000 0.0000 0.0000 0.0000 0.0000 0.0000 0.0000 0.0000 0.0000 0.0000 0.0000 0.0000 0.0000 0.0000 0.0000 0.0000 0.0000 0.0000 0.0000 0.0000 0.0000 0.0000 0.0000 0.0000 0.0000 0.0000 0.0000 0.0000 0.0000 0.0000 0.0000 0.0000 0.0000 0.0000 0.0000 0.0000 0.0000 0.0000 0.0000 0.0000 0.0000 0.0000 0.0000 0.0000 0.0000 0.0000 0.0000 0.0000 0.0000 0.0000 0.0000 0.0000 0.0000 0.0000 0.0000 0.0000 0.0000 0.0000 0.0000 0.0000 0.0000 0.0000 0.0000 0.0000 0.0000 0.0000 0.0000 0.0000 0.0000 0.0000 0.0000 0.0000 0.0000 0.0000 0.0000 0.0000 0.0000 0.0000 0.0000 0.0000 0.0000 0.0000 0.0000 0.0000 0.0000 0.0000 0.0000 0.0000 0.0000 0.0000 0.0000 0.0000 0.0000 0.0000 0.0000 0.0000 0.0000 0.0000 0.0000 0.0000 0.0000 0.0000 0.0000 0.0000 0.0000 0.0000 0.0000 
</DataArray>
<DataArray type="Float32" Name="Radius" NumberOfComponents="1" format="ascii">
0.2836 0.4013 0.1318 0.2016 0.1180 0.3971 0.2083 0.1983 0.2316 0.1830 0.2083 0.3713 0.4684 0.4068 0.0904 0.1829 0.3563 0.0426 0.3370 0.0706 0.0906 0.2770 0.1479 0.2597 0.1799 0.0357 0.2470 0.1111 0.3861 0.1728 0.2415 0.1488 0.1852 0.4082 0.0789 0.3617 0.1983 0.2946 0.1310 0.1777 0.1186 0.0958 0.1461 0.1204 0.1697 0.2266 0.0285 0.2738 0.2145 0.1500 0.0684 0.3210 0.0978 0.3387 0.0725 0.0663 0.3437 0.1516 0.2290 0.0523 0.2101 0.1609 0.0319 0.2682 0.0319 0.0594 0.1467 0.1322 0.2393 0.1851 0.2074 0.1030 0.1359 0.2829 0.0245 0.0362 0.0912 0.0360 0.0578 0.0281 0.2335 0.3751 0.1181 0.0882 0.3214 0.0469 0.0591 0.0801 0.0418 0.0249 0.0686 0.2172 0.0552 0.1891 0.2694 0.2488 0.1514 0.0359 0.0394 0.1545 0.0395 0.0915 0.0982 0.0338 0.4255 0.1590 0.0297 0.2410 0.0967 0.2990 0.0949 0.2044 0.0293 0.2959 0.0623 0.1153 0.4013 0.0394 0.1161 0.0410 0.0430 0.0311 0.1806 0.2180 0.0308 0.2285 0.2693 0.2762 0.0354 0.2923 0.0539 0.0326 0.0331 0.0287 0.1362 0.0691 0.3517 0.2116 0.0355 0.0407 0.1352 0.1315 0.3295 0.0442 0.1371 0.3589 0.1107 0.0280 0.0997 0.3400 0.0311 0.0302 0.0244 0.0339 0.0381 0.1598 0.0273 0.1295 0.1480 0.0285 0.0812 0.0806 0.0313 0.0323 0.0845 0.0343 0.0294 0.1745 0.0162 0.0255 0.2424 0.0492 0.2341 0.2743 0.1852 0.0231 0.0286 0.0249 0.1995 0.0970 0.1169 0.0313 
</DataArray>
</PointData>
<CellData/>
</Piece>
</UnstructuredGrid>
</VTKFile>
