<?xml version="1.0"?>
<VTKFile type="UnstructuredGrid" version="0.1" byte_order="LittleEndian">
 <UnstructuredGrid>
  <Piece NumberOfPoints="182" NumberOfCells="0">
   <Cells>
    <DataArray type="Int32" name="connectivity" format="ascii">
       0
    </DataArray>
    <DataArray type="Float32" name="offset" format="ascii">
       0
    </DataArray>
    <DataArray type="UInt8" name="types" format="ascii">
       1
    </DataArray>
   </Cells>
   <Points>
<DataArray type="Float32" NumberOfComponents="3" format="ascii">
-0.1252 -0.0928 -0.1720 -0.1681 0.0493 0.0537 -0.1432 -0.3230 0.1245 0.2162 -0.1789 -0.2767 -0.0808 0.4627 0.1718 0.0341 -0.1117 -0.0710 -0.2645 0.2188 -0.1827 -0.3294 0.2658 -0.0509 -0.2393 -0.1402 -0.0646 -0.3518 0.2570 0.0489 -0.1947 0.0903 -0.2824 -0.1101 -0.0077 -0.1183 -0.0087 0.0477 -0.0139 -0.0744 0.0615 -0.1159 -0.2364 0.1954 -0.4246 -0.0476 -0.2524 0.2072 0.2217 -0.0306 0.0659 0.2180 0.0585 -0.4456 0.2249 -0.0981 0.1316 -0.4358 -0.1967 -0.0126 0.1359 -0.0016 -0.4587 0.2448 -0.0746 -0.0813 0.1884 -0.1559 -0.3847 0.1060 -0.3054 0.1510 -0.0231 0.4132 0.0843 -0.5410 -0.0937 0.1934 -0.1386 0.2706 0.2059 0.0136 -0.4935 0.0974 -0.0040 -0.0197 0.0959 -0.1817 -0.2528 -0.1187 0.1673 -0.0646 -0.2585 -0.4203 0.1272 0.1645 0.2453 -0.1835 0.2978 -0.1309 0.1423 0.0713 0.4222 -0.0321 0.3265 0.1973 -0.1621 0.0402 -0.3994 -0.0325 0.0963 0.0416 -0.2497 0.1044 -0.4747 0.0840 0.0848 0.2799 0.0784 -0.1926 -0.0727 -0.4339 0.0133 0.4123 0.1835 -0.0121 0.4024 -0.0166 0.2399 -0.0881 -0.4064 0.0716 -0.2182 0.1805 -0.3243 0.0074 -0.3218 -0.0090 -0.0529 0.0490 -0.5986 0.0671 -0.1887 0.1850 0.0845 -0.3682 0.0717 -0.3980 -0.1207 0.0308 0.5192 0.0805 0.1618 0.1369 0.0142 -0.1643 -0.4690 -0.0354 0.2190 0.0119 -0.0101 -0.2142 -0.3901 0.0743 0.3660 -0.2691 0.4826 0.0552 0.1675 -0.0092 -0.0888 0.3034 -0.2512 -0.2264 -0.3500 0.1648 0.0605 0.5103 0.1519 0.0523 -0.0598 0.0493 -0.3733 -0.2613 0.1794 0.3214 -0.3927 0.3187 -0.3151 0.1174 -0.0972 -0.2742 0.2934 -0.2374 -0.4606 -0.1910 0.1582 -0.5036 0.0653 -0.0541 -0.4510 -0.1453 -0.3559 0.0124 -0.1568 -0.2043 0.0242 0.1585 -0.2583 0.2828 -0.2875 0.1179 0.2611 0.3772 -0.3514 -0.0853 0.3471 -0.2870 -0.1649 -0.1179 -0.1424 0.0971 -0.1068 0.0846 -0.5912 0.0254 -0.5373 0.2217 -0.2027 0.2918 0.3812 0.0847 0.5311 0.0258 -0.4050 0.3349 -0.2200 0.1442 -0.1128 -0.5737 -0.1412 0.3466 0.0931 0.1042 -0.0989 0.1079 0.2743 -0.4195 0.0471 -0.0220 0.0182 -0.5244 0.1457 0.0792 -0.0955 0.3548 -0.2929 -0.3448 0.5523 0.0283 0.0953 -0.1528 -0.4152 -0.0650 0.2064 -0.1711 -0.5167 0.3941 -0.3296 -0.3176 0.1300 -0.3907 0.3558 -0.2815 0.2910 0.0119 -0.0274 0.5221 0.2059 -0.1414 0.1170 -0.3637 0.1681 -0.2945 0.0851 0.2558 0.1135 0.0026 0.0025 -0.1915 -0.3391 0.0042 0.5689 0.1299 0.1580 -0.5545 0.0850 0.0758 0.3856 -0.0019 -0.3205 0.2666 -0.4101 0.4943 -0.1833 0.0510 -0.0653 0.4525 0.2430 0.0184 0.5765 0.0924 -0.1196 0.0099 0.0119 0.4206 0.0134 0.1801 0.0255 -0.0158 -0.5998 0.3583 -0.0784 0.0924 -0.3096 0.2559 -0.3256 -0.0155 0.2540 0.0155 0.4981 0.0946 0.0903 -0.1181 -0.2788 -0.0704 0.0799 -0.0739 -0.5919 0.1562 0.0090 0.1575 -0.1486 0.1231 -0.5239 0.4374 0.1238 0.0729 0.0798 -0.1558 0.0536 0.3145 -0.2589 -0.4195 -0.0655 0.4891 0.1008 0.3910 -0.0897 0.4060 -0.4383 0.3438 -0.1792 0.2524 -0.2156 -0.4965 0.2137 -0.2523 -0.2077 0.0583 -0.3795 0.1027 0.0517 -0.5068 0.2897 -0.0769 0.3573 0.1331 0.2294 -0.1899 -0.1159 -0.3196 0.0306 0.1162 -0.5668 -0.1149 0.0988 0.1923 -0.2224 0.1364 0.1652 -0.1366 -0.5261 0.3540 -0.1397 0.4366 0.4668 -0.3385 -0.1407 0.2477 -0.2696 0.4535 -0.1406 -0.2658 -0.2315 -0.4561 -0.0039 0.2987 -0.0870 0.1597 -0.0613 0.1439 -0.2886 0.2406 -0.0825 0.4710 0.3290 0.3844 -0.4364 -0.0478 0.0647 0.2546 -0.2926 -0.3915 0.0727 0.2736 -0.1882 0.1557 -0.0644 0.4879 -0.3075 -0.0677 0.1241 -0.1028 -0.4408 -0.0562 0.2022 0.0575 -0.4024 0.0387 0.3000 -0.4124 0.3393 -0.2777 0.2180 -0.2681 0.3782 0.1424 -0.1179 -0.1420 0.0806 -0.4715 0.3353 -0.2999 0.2539 -0.4508 -0.5468 -0.1569 0.0609 0.4085 -0.3436 -0.2655 -0.0633 -0.5415 0.0461 0.3959 0.1078 0.0392 0.3644 -0.4721 -0.0122 -0.3578 0.2960 -0.1545 -0.3749 0.1833 0.2126 -0.2488 0.2021 -0.5079 -0.0593 -0.2782 -0.3486 -0.1237 -0.2689 -0.3251 0.5366 -0.2504 0.0058 -0.0069 0.5615 0.1709 -0.4689 0.2647 -0.0144 -0.2492 0.2696 0.4477 0.3489 -0.2840 -0.3966 0.0887 0.0891 0.2841 0.5986 -0.0190 0.0839 0.5269 -0.2833 -0.0283 0.1845 -0.2184 0.2359 0.0085 -0.1718 -0.4796 -0.2123 0.1757 -0.2263 -0.0709 -0.1305 0.1558 0.4210 0.0035 0.1039 -0.1045 0.4449 0.3741 0.2029 -0.5543 0.0720 0.0539 -0.0471 -0.6023 -0.2039 0.2244 0.2809 -0.2582 -0.2570 -0.1919 0.4023 -0.2998 -0.0822 -0.5837 0.0174 0.0867 
</DataArray>
    </Points>
    <PointData>
<DataArray type="Float32" Name="Position" NumberOfComponents="3" format="ascii">
-0.1252 -0.0928 -0.1720 -0.1681 0.0493 0.0537 -0.1432 -0.3230 0.1245 0.2162 -0.1789 -0.2767 -0.0808 0.4627 0.1718 0.0341 -0.1117 -0.0710 -0.2645 0.2188 -0.1827 -0.3294 0.2658 -0.0509 -0.2393 -0.1402 -0.0646 -0.3518 0.2570 0.0489 -0.1947 0.0903 -0.2824 -0.1101 -0.0077 -0.1183 -0.0087 0.0477 -0.0139 -0.0744 0.0615 -0.1159 -0.2364 0.1954 -0.4246 -0.0476 -0.2524 0.2072 0.2217 -0.0306 0.0659 0.2180 0.0585 -0.4456 0.2249 -0.0981 0.1316 -0.4358 -0.1967 -0.0126 0.1359 -0.0016 -0.4587 0.2448 -0.0746 -0.0813 0.1884 -0.1559 -0.3847 0.1060 -0.3054 0.1510 -0.0231 0.4132 0.0843 -0.5410 -0.0937 0.1934 -0.1386 0.2706 0.2059 0.0136 -0.4935 0.0974 -0.0040 -0.0197 0.0959 -0.1817 -0.2528 -0.1187 0.1673 -0.0646 -0.2585 -0.4203 0.1272 0.1645 0.2453 -0.1835 0.2978 -0.1309 0.1423 0.0713 0.4222 -0.0321 0.3265 0.1973 -0.1621 0.0402 -0.3994 -0.0325 0.0963 0.0416 -0.2497 0.1044 -0.4747 0.0840 0.0848 0.2799 0.0784 -0.1926 -0.0727 -0.4339 0.0133 0.4123 0.1835 -0.0121 0.4024 -0.0166 0.2399 -0.0881 -0.4064 0.0716 -0.2182 0.1805 -0.3243 0.0074 -0.3218 -0.0090 -0.0529 0.0490 -0.5986 0.0671 -0.1887 0.1850 0.0845 -0.3682 0.0717 -0.3980 -0.1207 0.0308 0.5192 0.0805 0.1618 0.1369 0.0142 -0.1643 -0.4690 -0.0354 0.2190 0.0119 -0.0101 -0.2142 -0.3901 0.0743 0.3660 -0.2691 0.4826 0.0552 0.1675 -0.0092 -0.0888 0.3034 -0.2512 -0.2264 -0.3500 0.1648 0.0605 0.5103 0.1519 0.0523 -0.0598 0.0493 -0.3733 -0.2613 0.1794 0.3214 -0.3927 0.3187 -0.3151 0.1174 -0.0972 -0.2742 0.2934 -0.2374 -0.4606 -0.1910 0.1582 -0.5036 0.0653 -0.0541 -0.4510 -0.1453 -0.3559 0.0124 -0.1568 -0.2043 0.0242 0.1585 -0.2583 0.2828 -0.2875 0.1179 0.2611 0.3772 -0.3514 -0.0853 0.3471 -0.2870 -0.1649 -0.1179 -0.1424 0.0971 -0.1068 0.0846 -0.5912 0.0254 -0.5373 0.2217 -0.2027 0.2918 0.3812 0.0847 0.5311 0.0258 -0.4050 0.3349 -0.2200 0.1442 -0.1128 -0.5737 -0.1412 0.3466 0.0931 0.1042 -0.0989 0.1079 0.2743 -0.4195 0.0471 -0.0220 0.0182 -0.5244 0.1457 0.0792 -0.0955 0.3548 -0.2929 -0.3448 0.5523 0.0283 0.0953 -0.1528 -0.4152 -0.0650 0.2064 -0.1711 -0.5167 0.3941 -0.3296 -0.3176 0.1300 -0.3907 0.3558 -0.2815 0.2910 0.0119 -0.0274 0.5221 0.2059 -0.1414 0.1170 -0.3637 0.1681 -0.2945 0.0851 0.2558 0.1135 0.0026 0.0025 -0.1915 -0.3391 0.0042 0.5689 0.1299 0.1580 -0.5545 0.0850 0.0758 0.3856 -0.0019 -0.3205 0.2666 -0.4101 0.4943 -0.1833 0.0510 -0.0653 0.4525 0.2430 0.0184 0.5765 0.0924 -0.1196 0.0099 0.0119 0.4206 0.0134 0.1801 0.0255 -0.0158 -0.5998 0.3583 -0.0784 0.0924 -0.3096 0.2559 -0.3256 -0.0155 0.2540 0.0155 0.4981 0.0946 0.0903 -0.1181 -0.2788 -0.0704 0.0799 -0.0739 -0.5919 0.1562 0.0090 0.1575 -0.1486 0.1231 -0.5239 0.4374 0.1238 0.0729 0.0798 -0.1558 0.0536 0.3145 -0.2589 -0.4195 -0.0655 0.4891 0.1008 0.3910 -0.0897 0.4060 -0.4383 0.3438 -0.1792 0.2524 -0.2156 -0.4965 0.2137 -0.2523 -0.2077 0.0583 -0.3795 0.1027 0.0517 -0.5068 0.2897 -0.0769 0.3573 0.1331 0.2294 -0.1899 -0.1159 -0.3196 0.0306 0.1162 -0.5668 -0.1149 0.0988 0.1923 -0.2224 0.1364 0.1652 -0.1366 -0.5261 0.3540 -0.1397 0.4366 0.4668 -0.3385 -0.1407 0.2477 -0.2696 0.4535 -0.1406 -0.2658 -0.2315 -0.4561 -0.0039 0.2987 -0.0870 0.1597 -0.0613 0.1439 -0.2886 0.2406 -0.0825 0.4710 0.3290 0.3844 -0.4364 -0.0478 0.0647 0.2546 -0.2926 -0.3915 0.0727 0.2736 -0.1882 0.1557 -0.0644 0.4879 -0.3075 -0.0677 0.1241 -0.1028 -0.4408 -0.0562 0.2022 0.0575 -0.4024 0.0387 0.3000 -0.4124 0.3393 -0.2777 0.2180 -0.2681 0.3782 0.1424 -0.1179 -0.1420 0.0806 -0.4715 0.3353 -0.2999 0.2539 -0.4508 -0.5468 -0.1569 0.0609 0.4085 -0.3436 -0.2655 -0.0633 -0.5415 0.0461 0.3959 0.1078 0.0392 0.3644 -0.4721 -0.0122 -0.3578 0.2960 -0.1545 -0.3749 0.1833 0.2126 -0.2488 0.2021 -0.5079 -0.0593 -0.2782 -0.3486 -0.1237 -0.2689 -0.3251 0.5366 -0.2504 0.0058 -0.0069 0.5615 0.1709 -0.4689 0.2647 -0.0144 -0.2492 0.2696 0.4477 0.3489 -0.2840 -0.3966 0.0887 0.0891 0.2841 0.5986 -0.0190 0.0839 0.5269 -0.2833 -0.0283 0.1845 -0.2184 0.2359 0.0085 -0.1718 -0.4796 -0.2123 0.1757 -0.2263 -0.0709 -0.1305 0.1558 0.4210 0.0035 0.1039 -0.1045 0.4449 0.3741 0.2029 -0.5543 0.0720 0.0539 -0.0471 -0.6023 -0.2039 0.2244 0.2809 -0.2582 -0.2570 -0.1919 0.4023 -0.2998 -0.0822 -0.5837 0.0174 0.0867 
</DataArray>
<DataArray type="Float32" Name="Velocity" NumberOfComponents="3" format="ascii">
0.0000 0.0000 0.0000 0.0000 0.0000 0.0000 0.0000 0.0000 0.0000 0.0000 0.0000 0.0000 0.0000 0.0000 0.0000 0.0000 0.0000 0.0000 0.0000 0.0000 0.0000 0.0000 0.0000 0.0000 0.0000 0.0000 0.0000 0.0000 0.0000 0.0000 0.0000 0.0000 0.0000 0.0000 0.0000 0.0000 0.0000 0.0000 0.0000 0.0000 0.0000 0.0000 0.0000 0.0000 0.0000 0.0000 0.0000 0.0000 0.0000 0.0000 0.0000 0.0000 0.0000 0.0000 0.0000 0.0000 0.0000 0.0000 0.0000 0.0000 0.0000 0.0000 0.0000 0.0000 0.0000 0.0000 0.0000 0.0000 0.0000 0.0000 0.0000 0.0000 0.0000 0.0000 0.0000 0.0000 0.0000 0.0000 0.0000 0.0000 0.0000 0.0000 0.0000 0.0000 0.0000 0.0000 0.0000 0.0000 0.0000 0.0000 0.0000 0.0000 0.0000 0.0000 0.0000 0.0000 0.0000 0.0000 0.0000 0.0000 0.0000 0.0000 0.0000 0.0000 0.0000 0.0000 0.0000 0.0000 0.0000 0.0000 0.0000 0.0000 0.0000 0.0000 0.0000 0.0000 0.0000 0.0000 0.0000 0.0000 0.0000 0.0000 0.0000 0.0000 0.0000 0.0000 0.0000 0.0000 0.0000 0.0000 0.0000 0.0000 0.0000 0.0000 0.0000 0.0000 0.0000 0.0000 0.0000 0.0000 0.0000 0.0000 0.0000 0.0000 0.0000 0.0000 0.0000 0.0000 0.0000 0.0000 0.0000 0.0000 0.0000 0.0000 0.0000 0.0000 0.0000 0.0000 0.0000 0.0000 0.0000 0.0000 0.0000 0.0000 0.0000 0.0000 0.0000 0.0000 0.0000 0.0000 0.0000 0.0000 0.0000 0.0000 0.0000 0.0000 0.0000 0.0000 0.0000 0.0000 0.0000 0.0000 0.0000 0.0000 0.0000 0.0000 0.0000 0.0000 0.0000 0.0000 0.0000 0.0000 0.0000 0.0000 0.0000 0.0000 0.0000 0.0000 0.0000 0.0000 0.0000 0.0000 0.0000 0.0000 0.0000 0.0000 0.0000 0.0000 0.0000 0.0000 0.0000 0.0000 0.0000 0.0000 0.0000 0.0000 0.0000 0.0000 0.0000 0.0000 0.0000 0.0000 0.0000 0.0000 0.0000 0.0000 0.0000 0.0000 0.0000 0.0000 0.0000 0.0000 0.0000 0.0000 0.0000 0.0000 0.0000 0.0000 0.0000 0.0000 0.0000 0.0000 0.0000 0.0000 0.0000 0.0000 0.0000 0.0000 0.0000 0.0000 0.0000 0.0000 0.0000 0.0000 0.0000 0.0000 0.0000 0.0000 0.0000 0.0000 0.0000 0.0000 0.0000 0.0000 0.0000 0.0000 0.0000 0.0000 0.0000 0.0000 0.0000 0.0000 0.0000 0.0000 0.0000 0.0000 0.0000 0.0000 0.0000 0.0000 0.0000 0.0000 0.0000 0.0000 0.0000 0.0000 0.0000 0.0000 0.0000 0.0000 0.0000 0.0000 0.0000 0.0000 0.0000 0.0000 0.0000 0.0000 0.0000 0.0000 0.0000 0.0000 0.0000 0.0000 0.0000 0.0000 0.0000 0.0000 0.0000 0.0000 0.0000 0.0000 0.0000 0.0000 0.0000 0.0000 0.0000 0.0000 0.0000 0.0000 0.0000 0.0000 0.0000 0.0000 0.0000 0.0000 0.0000 0.0000 0.0000 0.0000 0.0000 0.0000 0.0000 0.0000 0.0000 0.0000 0.0000 0.0000 0.0000 0.0000 0.0000 0.0000 0.0000 0.0000 0.0000 0.0000 0.0000 0.0000 0.0000 0.0000 0.0000 0.0000 0.0000 0.0000 0.0000 0.0000 0.0000 0.0000 0.0000 0.0000 0.0000 0.0000 0.0000 0.0000 0.0000 0.0000 0.0000 0.0000 0.0000 0.0000 0.0000 0.0000 0.0000 0.0000 0.0000 0.0000 0.0000 0.0000 0.0000 0.0000 0.0000 0.0000 0.0000 0.0000 0.0000 0.0000 0.0000 0.0000 0.0000 0.0000 0.0000 0.0000 0.0000 0.0000 0.0000 0.0000 0.0000 0.0000 0.0000 0.0000 0.0000 0.0000 0.0000 0.0000 0.0000 0.0000 0.0000 0.0000 0.0000 0.0000 0.0000 0.0000 0.0000 0.0000 0.0000 0.0000 0.0000 0.0000 0.0000 0.0000 0.0000 0.0000 0.0000 0.0000 0.0000 0.0000 0.0000 0.0000 0.0000 0.0000 0.0000 0.0000 0.0000 0.0000 0.0000 0.0000 0.0000 0.0000 0.0000 0.0000 0.0000 0.0000 0.0000 0.0000 0.0000 0.0000 0.0000 0.0000 0.0000 0.0000 0.0000 0.0000 0.0000 0.0000 0.0000 0.0000 0.0000 0.0000 0.0000 0.0000 0.0000 0.0000 0.0000 0.0000 0.0000 0.0000 0.0000 0.0000 0.0000 0.0000 0.0000 0.0000 0.0000 0.0000 0.0000 0.0000 0.0000 0.0000 0.0000 0.0000 0.0000 0.0000 0.0000 0.0000 0.0000 0.0000 0.0000 0.0000 0.0000 0.0000 0.0000 0.0000 0.0000 0.0000 0.0000 0.0000 0.0000 0.0000 0.0000 0.0000 0.0000 0.0000 0.0000 0.0000 0.0000 0.0000 0.0000 0.0000 0.0000 0.0000 0.0000 0.0000 0.0000 0.0000 0.0000 0.0000 0.0000 0.0000 0.0000 0.0000 0.0000 0.0000 0.0000 0.0000 0.0000 0.0000 0.0000 0.0000 0.0000 0.0000 0.0000 0.0000 0.0000 0.0000 0.0000 0.0000 0.0000 0.0000 0.0000 0.0000 0.0000 0.0000 0.0000 0.0000 0.0000 0.0000 
</DataArray>
<DataArray type="Float32" Name="Radius" NumberOfComponents="1" format="ascii">
0.2836 0.4013 0.1318 0.2016 0.1180 0.3971 0.2083 0.1983 0.2316 0.1830 0.2083 0.3713 0.4684 0.4068 0.0904 0.1829 0.3563 0.0426 0.3370 0.0706 0.0906 0.2770 0.1479 0.2597 0.1799 0.0357 0.2470 0.1111 0.3861 0.1728 0.2415 0.1488 0.1852 0.4082 0.0789 0.3617 0.1983 0.2946 0.1310 0.1777 0.1186 0.0958 0.1461 0.1204 0.1697 0.2266 0.0285 0.2738 0.2145 0.1500 0.0684 0.3210 0.0978 0.3387 0.0725 0.0663 0.3437 0.1516 0.2290 0.0523 0.2101 0.1609 0.0319 0.2682 0.0319 0.0594 0.1467 0.1322 0.2393 0.1851 0.2074 0.1030 0.1359 0.2829 0.0245 0.0362 0.0912 0.0360 0.0578 0.0281 0.2335 0.3751 0.1181 0.0882 0.3214 0.0469 0.0591 0.0801 0.0418 0.0249 0.0686 0.2172 0.0552 0.1891 0.2694 0.2488 0.1514 0.0359 0.0394 0.1545 0.0395 0.0915 0.0982 0.0338 0.4255 0.1590 0.0297 0.2410 0.0967 0.2990 0.0949 0.2044 0.0293 0.2959 0.0623 0.1153 0.4013 0.0394 0.1161 0.0410 0.0430 0.0311 0.1806 0.2180 0.0308 0.2285 0.2693 0.2762 0.0354 0.2923 0.0539 0.0326 0.0331 0.0287 0.1362 0.0691 0.3517 0.2116 0.0355 0.0407 0.1352 0.1315 0.3295 0.0442 0.1371 0.3589 0.1107 0.0280 0.0997 0.3400 0.0311 0.0302 0.0244 0.0339 0.0381 0.1598 0.0273 0.1295 0.1480 0.0285 0.0812 0.0806 0.0313 0.0323 0.0845 0.0343 0.0294 0.1745 0.0162 0.0255 0.2424 0.0492 0.2341 0.2743 0.1852 0.0231 0.0286 0.0249 0.1995 0.0970 0.1169 0.0313 
</DataArray>
</PointData>
<CellData/>
</Piece>
</UnstructuredGrid>
</VTKFile>
