<?xml version="1.0"?>
<VTKFile type="UnstructuredGrid" version="0.1" byte_order="LittleEndian">
 <UnstructuredGrid>
  <Piece NumberOfPoints="182" NumberOfCells="0">
   <Cells>
    <DataArray type="Int32" name="connectivity" format="ascii">
       0
    </DataArray>
    <DataArray type="Float32" name="offset" format="ascii">
       0
    </DataArray>
    <DataArray type="UInt8" name="types" format="ascii">
       1
    </DataArray>
   </Cells>
   <Points>
<DataArray type="Float32" NumberOfComponents="3" format="ascii">
-0.1373 0.0738 -0.1720 -0.0270 0.1730 0.0537 -0.3533 -0.0079 0.1245 -0.0698 -0.2718 -0.2767 0.3842 0.2701 0.1718 -0.0865 -0.0784 -0.0710 0.0854 0.3325 -0.1827 0.1003 0.4112 -0.0509 -0.2287 0.1569 -0.0646 0.0828 0.4277 0.0489 -0.0012 0.2146 -0.2824 -0.0539 0.0963 -0.1183 0.0395 0.0282 -0.0139 0.0240 0.0935 -0.1159 0.0762 0.2971 -0.4246 -0.2486 -0.0644 0.2072 0.0667 -0.2136 0.0659 0.1458 -0.1723 -0.4456 0.0070 -0.2453 0.1316 -0.3635 0.3106 -0.0126 0.0564 -0.1236 -0.4587 0.0367 -0.2533 -0.0813 -0.0608 -0.2369 -0.3847 -0.2312 -0.2260 0.1510 0.3641 0.1969 0.0843 -0.3151 0.4496 0.1934 0.1859 0.2406 0.2059 -0.4408 -0.2224 0.0974 -0.0196 -0.0048 0.0959 -0.3061 0.0568 -0.1187 0.0128 -0.1789 -0.2585 -0.0639 0.4345 0.1645 -0.0616 -0.3000 0.2978 0.0730 0.1791 0.0713 0.1507 -0.3957 0.3265 -0.0627 -0.2475 0.0402 -0.1995 0.3475 0.0963 -0.2082 -0.1439 0.1044 -0.1261 0.4653 0.0848 0.1901 -0.2199 -0.1926 -0.4236 -0.1190 0.0133 0.3415 -0.2949 -0.0121 0.1564 -0.3712 0.2399 -0.4052 -0.0933 0.0716 0.0704 0.2743 -0.3243 -0.2881 -0.1437 -0.0090 0.0218 0.0687 -0.5986 -0.1422 -0.1411 0.1850 -0.2971 -0.2333 0.0717 -0.2787 0.3087 0.0308 0.2939 -0.4355 0.1618 0.0711 -0.1178 -0.1643 -0.2317 0.4093 0.2190 -0.0041 -0.0151 -0.2142 -0.0989 0.3846 0.3660 0.3221 0.4490 0.0552 0.0630 -0.1555 -0.0888 -0.0981 -0.3815 -0.2264 0.0001 0.3869 0.0605 0.3547 -0.3970 0.0523 0.0192 0.0751 -0.3733 0.0511 0.3128 0.3214 0.1211 0.4910 -0.3151 -0.0379 -0.1476 -0.2742 -0.0899 -0.3665 -0.4606 0.0618 0.2402 -0.5036 -0.0212 -0.0821 -0.4510 -0.3839 -0.0201 0.0124 -0.2516 0.0549 0.0242 -0.1662 -0.2534 0.2828 -0.0158 0.3103 0.2611 -0.1573 -0.4909 -0.0853 -0.1119 -0.4363 -0.1649 -0.1791 0.0461 0.0971 0.0311 0.1327 -0.5912 -0.4753 -0.2518 0.2217 0.1777 0.3077 0.3812 0.5166 0.1495 0.0258 0.1306 0.5091 -0.2200 -0.0407 -0.1785 -0.5737 0.2535 0.2753 0.0931 -0.0451 -0.1364 0.1079 -0.2628 -0.4268 0.0471 0.0071 0.0277 -0.5244 0.1337 -0.0981 -0.0955 -0.1139 -0.4457 -0.3448 0.2607 -0.4877 0.0953 -0.4408 -0.0385 -0.0650 -0.0669 -0.2596 -0.5167 -0.1304 -0.4969 -0.3176 -0.2981 -0.2839 0.3558 0.1435 0.3786 0.0119 0.4608 0.2471 0.2059 0.0457 0.1778 -0.3637 -0.1949 -0.2775 0.0851 0.2116 -0.1831 0.0026 -0.1722 -0.0838 -0.3391 0.5165 0.2384 0.1299 -0.4345 -0.3791 0.0850 0.3811 0.0956 -0.0019 0.1048 0.4035 -0.4101 0.0446 -0.5253 0.0510 0.3816 0.2518 0.2430 0.5294 0.2288 0.0924 -0.0420 0.1124 0.0119 0.1912 -0.3748 0.1801 -0.0034 -0.0298 -0.5998 0.0816 -0.3575 0.0924 0.0998 0.3891 -0.3256 0.2232 0.1222 0.0155 0.2977 -0.4104 0.0903 -0.3025 -0.0118 -0.0704 -0.0329 -0.1038 -0.5919 0.0746 -0.1375 0.1575 0.0481 0.1869 -0.5239 0.2982 -0.3431 0.0729 -0.1070 -0.1385 0.0536 -0.1003 -0.3948 -0.4195 0.4146 0.2675 0.1008 0.0853 -0.3920 0.4060 0.1244 0.5430 -0.1792 -0.0876 -0.3202 -0.4965 -0.1373 -0.3007 -0.2077 -0.3186 -0.2143 0.1027 -0.4365 -0.2625 0.2897 0.2905 0.2217 0.1331 -0.0742 -0.2885 -0.1159 -0.1084 0.3022 0.1162 -0.3453 0.4639 0.0988 -0.1194 -0.2687 0.1364 -0.0533 -0.2077 -0.5261 0.0243 -0.3798 0.4366 -0.1075 -0.5665 -0.1407 -0.1385 -0.3389 0.4535 -0.3004 0.0141 -0.2315 -0.1977 0.4110 0.2987 0.1074 0.1467 -0.0613 -0.1999 -0.2530 0.2406 0.3910 0.2752 0.3290 -0.2312 -0.5337 -0.0478 0.2579 0.0499 -0.2926 -0.1009 0.3852 0.2736 0.0608 0.2366 -0.0644 -0.0705 -0.5724 -0.0677 -0.0401 -0.1561 -0.4408 0.1590 0.1370 0.0575 -0.1363 0.3806 0.3000 0.1314 0.5176 -0.2777 -0.1498 -0.3114 0.3782 -0.0460 -0.1791 -0.1420 -0.3923 -0.2737 0.3353 0.1021 0.3795 -0.4508 -0.3748 0.4280 0.0609 -0.1370 -0.5159 -0.2655 -0.5169 -0.1732 0.0461 0.2661 -0.3123 0.0392 -0.2720 -0.5308 -0.0122 0.1155 0.4498 -0.1545 0.0062 0.4172 0.2126 0.0769 0.3111 -0.5079 -0.2769 -0.0647 -0.3486 -0.2960 -0.0025 -0.3251 0.0019 -0.5922 0.0058 0.5052 0.2453 0.1709 0.0398 0.5370 -0.0144 0.1378 0.3403 0.4477 -0.1084 -0.4366 -0.3966 0.1184 -0.0424 0.2841 0.2377 -0.5498 0.0839 -0.0320 -0.5974 -0.0283 -0.1191 -0.2599 0.2359 -0.1518 -0.0808 -0.4796 0.0686 0.2669 -0.2263 -0.1483 0.0085 0.1558 0.1824 -0.3795 0.1039 0.3580 0.2839 0.3741 -0.4152 -0.4197 0.0720 -0.0197 -0.0688 -0.6023 0.1163 0.2801 0.2809 -0.3425 0.1242 -0.1919 -0.0999 -0.4917 -0.0822 -0.2328 0.5355 0.0867 
</DataArray>
    </Points>
    <PointData>
<DataArray type="Float32" Name="Position" NumberOfComponents="3" format="ascii">
-0.1373 0.0738 -0.1720 -0.0270 0.1730 0.0537 -0.3533 -0.0079 0.1245 -0.0698 -0.2718 -0.2767 0.3842 0.2701 0.1718 -0.0865 -0.0784 -0.0710 0.0854 0.3325 -0.1827 0.1003 0.4112 -0.0509 -0.2287 0.1569 -0.0646 0.0828 0.4277 0.0489 -0.0012 0.2146 -0.2824 -0.0539 0.0963 -0.1183 0.0395 0.0282 -0.0139 0.0240 0.0935 -0.1159 0.0762 0.2971 -0.4246 -0.2486 -0.0644 0.2072 0.0667 -0.2136 0.0659 0.1458 -0.1723 -0.4456 0.0070 -0.2453 0.1316 -0.3635 0.3106 -0.0126 0.0564 -0.1236 -0.4587 0.0367 -0.2533 -0.0813 -0.0608 -0.2369 -0.3847 -0.2312 -0.2260 0.1510 0.3641 0.1969 0.0843 -0.3151 0.4496 0.1934 0.1859 0.2406 0.2059 -0.4408 -0.2224 0.0974 -0.0196 -0.0048 0.0959 -0.3061 0.0568 -0.1187 0.0128 -0.1789 -0.2585 -0.0639 0.4345 0.1645 -0.0616 -0.3000 0.2978 0.0730 0.1791 0.0713 0.1507 -0.3957 0.3265 -0.0627 -0.2475 0.0402 -0.1995 0.3475 0.0963 -0.2082 -0.1439 0.1044 -0.1261 0.4653 0.0848 0.1901 -0.2199 -0.1926 -0.4236 -0.1190 0.0133 0.3415 -0.2949 -0.0121 0.1564 -0.3712 0.2399 -0.4052 -0.0933 0.0716 0.0704 0.2743 -0.3243 -0.2881 -0.1437 -0.0090 0.0218 0.0687 -0.5986 -0.1422 -0.1411 0.1850 -0.2971 -0.2333 0.0717 -0.2787 0.3087 0.0308 0.2939 -0.4355 0.1618 0.0711 -0.1178 -0.1643 -0.2317 0.4093 0.2190 -0.0041 -0.0151 -0.2142 -0.0989 0.3846 0.3660 0.3221 0.4490 0.0552 0.0630 -0.1555 -0.0888 -0.0981 -0.3815 -0.2264 0.0001 0.3869 0.0605 0.3547 -0.3970 0.0523 0.0192 0.0751 -0.3733 0.0511 0.3128 0.3214 0.1211 0.4910 -0.3151 -0.0379 -0.1476 -0.2742 -0.0899 -0.3665 -0.4606 0.0618 0.2402 -0.5036 -0.0212 -0.0821 -0.4510 -0.3839 -0.0201 0.0124 -0.2516 0.0549 0.0242 -0.1662 -0.2534 0.2828 -0.0158 0.3103 0.2611 -0.1573 -0.4909 -0.0853 -0.1119 -0.4363 -0.1649 -0.1791 0.0461 0.0971 0.0311 0.1327 -0.5912 -0.4753 -0.2518 0.2217 0.1777 0.3077 0.3812 0.5166 0.1495 0.0258 0.1306 0.5091 -0.2200 -0.0407 -0.1785 -0.5737 0.2535 0.2753 0.0931 -0.0451 -0.1364 0.1079 -0.2628 -0.4268 0.0471 0.0071 0.0277 -0.5244 0.1337 -0.0981 -0.0955 -0.1139 -0.4457 -0.3448 0.2607 -0.4877 0.0953 -0.4408 -0.0385 -0.0650 -0.0669 -0.2596 -0.5167 -0.1304 -0.4969 -0.3176 -0.2981 -0.2839 0.3558 0.1435 0.3786 0.0119 0.4608 0.2471 0.2059 0.0457 0.1778 -0.3637 -0.1949 -0.2775 0.0851 0.2116 -0.1831 0.0026 -0.1722 -0.0838 -0.3391 0.5165 0.2384 0.1299 -0.4345 -0.3791 0.0850 0.3811 0.0956 -0.0019 0.1048 0.4035 -0.4101 0.0446 -0.5253 0.0510 0.3816 0.2518 0.2430 0.5294 0.2288 0.0924 -0.0420 0.1124 0.0119 0.1912 -0.3748 0.1801 -0.0034 -0.0298 -0.5998 0.0816 -0.3575 0.0924 0.0998 0.3891 -0.3256 0.2232 0.1222 0.0155 0.2977 -0.4104 0.0903 -0.3025 -0.0118 -0.0704 -0.0329 -0.1038 -0.5919 0.0746 -0.1375 0.1575 0.0481 0.1869 -0.5239 0.2982 -0.3431 0.0729 -0.1070 -0.1385 0.0536 -0.1003 -0.3948 -0.4195 0.4146 0.2675 0.1008 0.0853 -0.3920 0.4060 0.1244 0.5430 -0.1792 -0.0876 -0.3202 -0.4965 -0.1373 -0.3007 -0.2077 -0.3186 -0.2143 0.1027 -0.4365 -0.2625 0.2897 0.2905 0.2217 0.1331 -0.0742 -0.2885 -0.1159 -0.1084 0.3022 0.1162 -0.3453 0.4639 0.0988 -0.1194 -0.2687 0.1364 -0.0533 -0.2077 -0.5261 0.0243 -0.3798 0.4366 -0.1075 -0.5665 -0.1407 -0.1385 -0.3389 0.4535 -0.3004 0.0141 -0.2315 -0.1977 0.4110 0.2987 0.1074 0.1467 -0.0613 -0.1999 -0.2530 0.2406 0.3910 0.2752 0.3290 -0.2312 -0.5337 -0.0478 0.2579 0.0499 -0.2926 -0.1009 0.3852 0.2736 0.0608 0.2366 -0.0644 -0.0705 -0.5724 -0.0677 -0.0401 -0.1561 -0.4408 0.1590 0.1370 0.0575 -0.1363 0.3806 0.3000 0.1314 0.5176 -0.2777 -0.1498 -0.3114 0.3782 -0.0460 -0.1791 -0.1420 -0.3923 -0.2737 0.3353 0.1021 0.3795 -0.4508 -0.3748 0.4280 0.0609 -0.1370 -0.5159 -0.2655 -0.5169 -0.1732 0.0461 0.2661 -0.3123 0.0392 -0.2720 -0.5308 -0.0122 0.1155 0.4498 -0.1545 0.0062 0.4172 0.2126 0.0769 0.3111 -0.5079 -0.2769 -0.0647 -0.3486 -0.2960 -0.0025 -0.3251 0.0019 -0.5922 0.0058 0.5052 0.2453 0.1709 0.0398 0.5370 -0.0144 0.1378 0.3403 0.4477 -0.1084 -0.4366 -0.3966 0.1184 -0.0424 0.2841 0.2377 -0.5498 0.0839 -0.0320 -0.5974 -0.0283 -0.1191 -0.2599 0.2359 -0.1518 -0.0808 -0.4796 0.0686 0.2669 -0.2263 -0.1483 0.0085 0.1558 0.1824 -0.3795 0.1039 0.3580 0.2839 0.3741 -0.4152 -0.4197 0.0720 -0.0197 -0.0688 -0.6023 0.1163 0.2801 0.2809 -0.3425 0.1242 -0.1919 -0.0999 -0.4917 -0.0822 -0.2328 0.5355 0.0867 
</DataArray>
<DataArray type="Float32" Name="Velocity" NumberOfComponents="3" format="ascii">
0.0000 0.0000 0.0000 0.0000 0.0000 0.0000 0.0000 0.0000 0.0000 0.0000 0.0000 0.0000 0.0000 0.0000 0.0000 0.0000 0.0000 0.0000 0.0000 0.0000 0.0000 0.0000 0.0000 0.0000 0.0000 0.0000 0.0000 0.0000 0.0000 0.0000 0.0000 0.0000 0.0000 0.0000 0.0000 0.0000 0.0000 0.0000 0.0000 0.0000 0.0000 0.0000 0.0000 0.0000 0.0000 0.0000 0.0000 0.0000 0.0000 0.0000 0.0000 0.0000 0.0000 0.0000 0.0000 0.0000 0.0000 0.0000 0.0000 0.0000 0.0000 0.0000 0.0000 0.0000 0.0000 0.0000 0.0000 0.0000 0.0000 0.0000 0.0000 0.0000 0.0000 0.0000 0.0000 0.0000 0.0000 0.0000 0.0000 0.0000 0.0000 0.0000 0.0000 0.0000 0.0000 0.0000 0.0000 0.0000 0.0000 0.0000 0.0000 0.0000 0.0000 0.0000 0.0000 0.0000 0.0000 0.0000 0.0000 0.0000 0.0000 0.0000 0.0000 0.0000 0.0000 0.0000 0.0000 0.0000 0.0000 0.0000 0.0000 0.0000 0.0000 0.0000 0.0000 0.0000 0.0000 0.0000 0.0000 0.0000 0.0000 0.0000 0.0000 0.0000 0.0000 0.0000 0.0000 0.0000 0.0000 0.0000 0.0000 0.0000 0.0000 0.0000 0.0000 0.0000 0.0000 0.0000 0.0000 0.0000 0.0000 0.0000 0.0000 0.0000 0.0000 0.0000 0.0000 0.0000 0.0000 0.0000 0.0000 0.0000 0.0000 0.0000 0.0000 0.0000 0.0000 0.0000 0.0000 0.0000 0.0000 0.0000 0.0000 0.0000 0.0000 0.0000 0.0000 0.0000 0.0000 0.0000 0.0000 0.0000 0.0000 0.0000 0.0000 0.0000 0.0000 0.0000 0.0000 0.0000 0.0000 0.0000 0.0000 0.0000 0.0000 0.0000 0.0000 0.0000 0.0000 0.0000 0.0000 0.0000 0.0000 0.0000 0.0000 0.0000 0.0000 0.0000 0.0000 0.0000 0.0000 0.0000 0.0000 0.0000 0.0000 0.0000 0.0000 0.0000 0.0000 0.0000 0.0000 0.0000 0.0000 0.0000 0.0000 0.0000 0.0000 0.0000 0.0000 0.0000 0.0000 0.0000 0.0000 0.0000 0.0000 0.0000 0.0000 0.0000 0.0000 0.0000 0.0000 0.0000 0.0000 0.0000 0.0000 0.0000 0.0000 0.0000 0.0000 0.0000 0.0000 0.0000 0.0000 0.0000 0.0000 0.0000 0.0000 0.0000 0.0000 0.0000 0.0000 0.0000 0.0000 0.0000 0.0000 0.0000 0.0000 0.0000 0.0000 0.0000 0.0000 0.0000 0.0000 0.0000 0.0000 0.0000 0.0000 0.0000 0.0000 0.0000 0.0000 0.0000 0.0000 0.0000 0.0000 0.0000 0.0000 0.0000 0.0000 0.0000 0.0000 0.0000 0.0000 0.0000 0.0000 0.0000 0.0000 0.0000 0.0000 0.0000 0.0000 0.0000 0.0000 0.0000 0.0000 0.0000 0.0000 0.0000 0.0000 0.0000 0.0000 0.0000 0.0000 0.0000 0.0000 0.0000 0.0000 0.0000 0.0000 0.0000 0.0000 0.0000 0.0000 0.0000 0.0000 0.0000 0.0000 0.0000 0.0000 0.0000 0.0000 0.0000 0.0000 0.0000 0.0000 0.0000 0.0000 0.0000 0.0000 0.0000 0.0000 0.0000 0.0000 0.0000 0.0000 0.0000 0.0000 0.0000 0.0000 0.0000 0.0000 0.0000 0.0000 0.0000 0.0000 0.0000 0.0000 0.0000 0.0000 0.0000 0.0000 0.0000 0.0000 0.0000 0.0000 0.0000 0.0000 0.0000 0.0000 0.0000 0.0000 0.0000 0.0000 0.0000 0.0000 0.0000 0.0000 0.0000 0.0000 0.0000 0.0000 0.0000 0.0000 0.0000 0.0000 0.0000 0.0000 0.0000 0.0000 0.0000 0.0000 0.0000 0.0000 0.0000 0.0000 0.0000 0.0000 0.0000 0.0000 0.0000 0.0000 0.0000 0.0000 0.0000 0.0000 0.0000 0.0000 0.0000 0.0000 0.0000 0.0000 0.0000 0.0000 0.0000 0.0000 0.0000 0.0000 0.0000 0.0000 0.0000 0.0000 0.0000 0.0000 0.0000 0.0000 0.0000 0.0000 0.0000 0.0000 0.0000 0.0000 0.0000 0.0000 0.0000 0.0000 0.0000 0.0000 0.0000 0.0000 0.0000 0.0000 0.0000 0.0000 0.0000 0.0000 0.0000 0.0000 0.0000 0.0000 0.0000 0.0000 0.0000 0.0000 0.0000 0.0000 0.0000 0.0000 0.0000 0.0000 0.0000 0.0000 0.0000 0.0000 0.0000 0.0000 0.0000 0.0000 0.0000 0.0000 0.0000 0.0000 0.0000 0.0000 0.0000 0.0000 0.0000 0.0000 0.0000 0.0000 0.0000 0.0000 0.0000 0.0000 0.0000 0.0000 0.0000 0.0000 0.0000 0.0000 0.0000 0.0000 0.0000 0.0000 0.0000 0.0000 0.0000 0.0000 0.0000 0.0000 0.0000 0.0000 0.0000 0.0000 0.0000 0.0000 0.0000 0.0000 0.0000 0.0000 0.0000 0.0000 0.0000 0.0000 0.0000 0.0000 0.0000 0.0000 0.0000 0.0000 0.0000 0.0000 0.0000 0.0000 0.0000 0.0000 0.0000 0.0000 0.0000 0.0000 0.0000 0.0000 0.0000 0.0000 0.0000 0.0000 0.0000 0.0000 0.0000 0.0000 0.0000 0.0000 0.0000 0.0000 0.0000 0.0000 0.0000 0.0000 0.0000 0.0000 0.0000 0.0000 0.0000 0.0000 0.0000 0.0000 0.0000 
</DataArray>
<DataArray type="Float32" Name="Radius" NumberOfComponents="1" format="ascii">
0.2836 0.4013 0.1318 0.2016 0.1180 0.3971 0.2083 0.1983 0.2316 0.1830 0.2083 0.3713 0.4684 0.4068 0.0904 0.1829 0.3563 0.0426 0.3370 0.0706 0.0906 0.2770 0.1479 0.2597 0.1799 0.0357 0.2470 0.1111 0.3861 0.1728 0.2415 0.1488 0.1852 0.4082 0.0789 0.3617 0.1983 0.2946 0.1310 0.1777 0.1186 0.0958 0.1461 0.1204 0.1697 0.2266 0.0285 0.2738 0.2145 0.1500 0.0684 0.3210 0.0978 0.3387 0.0725 0.0663 0.3437 0.1516 0.2290 0.0523 0.2101 0.1609 0.0319 0.2682 0.0319 0.0594 0.1467 0.1322 0.2393 0.1851 0.2074 0.1030 0.1359 0.2829 0.0245 0.0362 0.0912 0.0360 0.0578 0.0281 0.2335 0.3751 0.1181 0.0882 0.3214 0.0469 0.0591 0.0801 0.0418 0.0249 0.0686 0.2172 0.0552 0.1891 0.2694 0.2488 0.1514 0.0359 0.0394 0.1545 0.0395 0.0915 0.0982 0.0338 0.4255 0.1590 0.0297 0.2410 0.0967 0.2990 0.0949 0.2044 0.0293 0.2959 0.0623 0.1153 0.4013 0.0394 0.1161 0.0410 0.0430 0.0311 0.1806 0.2180 0.0308 0.2285 0.2693 0.2762 0.0354 0.2923 0.0539 0.0326 0.0331 0.0287 0.1362 0.0691 0.3517 0.2116 0.0355 0.0407 0.1352 0.1315 0.3295 0.0442 0.1371 0.3589 0.1107 0.0280 0.0997 0.3400 0.0311 0.0302 0.0244 0.0339 0.0381 0.1598 0.0273 0.1295 0.1480 0.0285 0.0812 0.0806 0.0313 0.0323 0.0845 0.0343 0.0294 0.1745 0.0162 0.0255 0.2424 0.0492 0.2341 0.2743 0.1852 0.0231 0.0286 0.0249 0.1995 0.0970 0.1169 0.0313 
</DataArray>
</PointData>
<CellData/>
</Piece>
</UnstructuredGrid>
</VTKFile>
