<?xml version="1.0"?>
<VTKFile type="UnstructuredGrid" version="0.1" byte_order="LittleEndian">
 <UnstructuredGrid>
  <Piece NumberOfPoints="182" NumberOfCells="0">
   <Cells>
    <DataArray type="Int32" name="connectivity" format="ascii">
       0
    </DataArray>
    <DataArray type="Float32" name="offset" format="ascii">
       0
    </DataArray>
    <DataArray type="UInt8" name="types" format="ascii">
       1
    </DataArray>
   </Cells>
   <Points>
<DataArray type="Float32" NumberOfComponents="3" format="ascii">
-0.0560 -0.1455 -0.1720 -0.1683 -0.0484 0.0537 0.0521 -0.3495 0.1245 0.2784 -0.0352 -0.2767 -0.3161 0.3473 0.1718 0.0887 -0.0760 -0.0710 -0.3406 0.0430 -0.1827 -0.4205 0.0479 -0.0509 -0.1270 -0.2466 -0.0646 -0.4347 0.0285 0.0489 -0.2128 -0.0281 -0.2824 -0.0888 -0.0655 -0.1183 -0.0329 0.0356 -0.0139 -0.0957 0.0121 -0.1159 -0.3043 0.0383 -0.4246 0.0951 -0.2386 0.2072 0.2036 0.0929 0.0659 0.1527 0.1662 -0.4456 0.2425 0.0377 0.1316 -0.2626 -0.3996 -0.0126 0.1156 0.0715 -0.4587 0.2467 0.0682 -0.0813 0.2426 -0.0307 -0.3847 0.2532 -0.2011 0.1510 -0.2409 0.3365 0.0843 -0.4065 -0.3690 0.1934 -0.2620 0.1543 0.2059 0.2759 -0.4094 0.0974 0.0072 -0.0188 0.0959 -0.0180 -0.3108 -0.1187 0.1759 0.0351 -0.2585 -0.4230 -0.1179 0.1645 0.3054 -0.0235 0.2978 -0.1868 0.0499 0.0713 0.3737 0.1991 0.3265 0.2534 -0.0312 0.0402 -0.3198 -0.2415 0.0963 0.1689 -0.1885 0.1044 -0.4458 -0.1834 0.0848 0.1944 0.2162 -0.1926 0.1711 -0.4053 0.0133 0.2498 0.3758 -0.0121 0.3487 0.2017 0.2399 0.1434 -0.3903 0.0716 -0.2810 0.0355 -0.3243 0.1787 -0.2678 -0.0090 -0.0709 0.0131 -0.5986 0.1578 -0.1234 0.1850 0.2687 -0.2656 0.0717 -0.2713 -0.3152 0.0308 0.3952 0.3462 0.1618 0.1080 0.0853 -0.1643 -0.3771 -0.2812 0.2190 0.0155 -0.0022 -0.2142 -0.3692 -0.1463 0.3660 -0.4858 0.2633 0.0552 0.1464 0.0820 -0.0888 0.3908 -0.0495 -0.2264 -0.3838 -0.0484 0.0605 0.3494 0.4017 0.0523 -0.0769 0.0096 -0.3733 -0.3167 0.0115 0.3214 -0.5023 0.0586 -0.3151 0.1512 -0.0191 -0.2742 0.3749 -0.0432 -0.4606 -0.2461 0.0312 -0.5036 0.0841 -0.0107 -0.4510 0.0680 -0.3784 0.0124 -0.0229 -0.2565 0.0242 0.2723 -0.1331 0.2828 -0.3059 -0.0545 0.2611 0.5068 -0.0946 -0.0853 0.4469 -0.0563 -0.1649 -0.0233 -0.1834 0.0971 -0.1355 0.0142 -0.5912 0.3094 -0.4400 0.2217 -0.3276 0.1378 0.3812 -0.2131 0.4938 0.0258 -0.5214 0.0658 -0.2200 0.1822 -0.0180 -0.5737 -0.3049 0.2169 0.0931 0.1410 -0.0277 0.1079 0.4563 -0.2072 0.0471 -0.0283 0.0036 -0.5244 0.0806 0.1450 -0.0955 0.4565 -0.0572 -0.3448 0.4512 0.3198 0.0953 0.0935 -0.4325 -0.0650 0.2660 -0.0338 -0.5167 0.5093 -0.0671 -0.3176 0.3191 -0.2602 0.3558 -0.3936 0.0949 0.0119 -0.3029 0.4262 0.2059 -0.1821 0.0230 -0.3637 0.2997 -0.1586 0.0851 0.1552 0.2329 0.0026 0.1047 -0.1604 -0.3391 -0.3013 0.4826 0.1299 0.4305 -0.3835 0.0850 -0.1426 0.3661 -0.0019 -0.4134 0.0534 -0.4101 0.5156 0.1101 0.0510 -0.2976 0.3471 0.2430 -0.2934 0.4966 0.0924 -0.1063 -0.0558 0.0119 0.3479 0.2367 0.1801 0.0300 0.0004 -0.5998 0.3445 0.1258 0.0924 -0.3985 0.0502 -0.3256 -0.1492 0.2062 0.0155 0.3699 0.3468 0.0903 0.0497 -0.2987 -0.0704 0.1071 -0.0196 -0.5919 0.1271 0.0913 0.1575 -0.1914 0.0243 -0.5239 0.3030 0.3389 0.0729 0.1508 -0.0888 0.0536 0.4043 -0.0500 -0.4195 -0.3174 0.3778 0.1008 0.3782 0.1338 0.4060 -0.5543 0.0554 -0.1792 0.3287 -0.0468 -0.4965 0.3156 -0.0985 -0.2077 0.2525 -0.2892 0.1027 0.3152 -0.4002 0.2897 -0.2563 0.2605 0.1331 0.2955 -0.0375 -0.1159 -0.2863 -0.1455 0.1162 -0.4170 -0.4008 0.0988 0.2815 -0.0848 0.1364 0.2127 -0.0268 -0.5261 0.3737 0.0718 0.4366 0.5755 -0.0357 -0.1407 0.3536 -0.0949 0.4535 0.0237 -0.2998 -0.2315 -0.3830 -0.2477 0.2987 -0.1590 0.0882 -0.0613 0.2761 -0.1666 0.2406 -0.3220 0.3534 0.3290 0.5584 -0.1625 -0.0478 -0.0818 0.2496 -0.2926 -0.3695 -0.1484 0.2736 -0.2424 0.0306 -0.0644 0.5767 0.0018 -0.0677 0.1599 -0.0202 -0.4408 -0.1558 0.1406 0.0575 -0.3605 -0.1829 0.3000 -0.5300 0.0655 -0.2777 0.3277 -0.1096 0.3782 0.1834 -0.0232 -0.1420 0.3207 -0.3549 0.3353 -0.3893 0.0537 -0.4508 -0.3776 -0.4255 0.0609 0.5290 -0.0713 -0.2655 0.2367 -0.4911 0.0461 0.2765 0.3031 0.0392 0.5607 -0.2034 -0.0122 -0.4607 0.0582 -0.1545 -0.4147 -0.0461 0.2126 -0.3183 0.0373 -0.5079 0.0989 -0.2666 -0.3486 0.0396 -0.2933 -0.3251 0.5873 0.0761 0.0058 -0.3067 0.4704 0.1709 -0.5378 -0.0278 -0.0144 -0.3549 0.0941 0.4477 0.4467 -0.0528 -0.3966 0.0272 0.1228 0.2841 0.5156 0.3047 0.0839 0.5967 0.0432 -0.0283 0.2728 -0.0855 0.2359 0.0992 -0.1405 -0.4796 -0.2734 0.0346 -0.2263 0.0101 -0.1482 0.1558 0.3536 0.2285 0.1039 -0.3266 0.3196 0.3741 0.4684 -0.3593 0.0720 0.0708 -0.0109 -0.6023 -0.2924 0.0802 0.2809 -0.0803 -0.3553 -0.1919 0.5003 -0.0375 -0.0822 -0.5021 -0.2981 0.0867 
</DataArray>
    </Points>
    <PointData>
<DataArray type="Float32" Name="Position" NumberOfComponents="3" format="ascii">
-0.0560 -0.1455 -0.1720 -0.1683 -0.0484 0.0537 0.0521 -0.3495 0.1245 0.2784 -0.0352 -0.2767 -0.3161 0.3473 0.1718 0.0887 -0.0760 -0.0710 -0.3406 0.0430 -0.1827 -0.4205 0.0479 -0.0509 -0.1270 -0.2466 -0.0646 -0.4347 0.0285 0.0489 -0.2128 -0.0281 -0.2824 -0.0888 -0.0655 -0.1183 -0.0329 0.0356 -0.0139 -0.0957 0.0121 -0.1159 -0.3043 0.0383 -0.4246 0.0951 -0.2386 0.2072 0.2036 0.0929 0.0659 0.1527 0.1662 -0.4456 0.2425 0.0377 0.1316 -0.2626 -0.3996 -0.0126 0.1156 0.0715 -0.4587 0.2467 0.0682 -0.0813 0.2426 -0.0307 -0.3847 0.2532 -0.2011 0.1510 -0.2409 0.3365 0.0843 -0.4065 -0.3690 0.1934 -0.2620 0.1543 0.2059 0.2759 -0.4094 0.0974 0.0072 -0.0188 0.0959 -0.0180 -0.3108 -0.1187 0.1759 0.0351 -0.2585 -0.4230 -0.1179 0.1645 0.3054 -0.0235 0.2978 -0.1868 0.0499 0.0713 0.3737 0.1991 0.3265 0.2534 -0.0312 0.0402 -0.3198 -0.2415 0.0963 0.1689 -0.1885 0.1044 -0.4458 -0.1834 0.0848 0.1944 0.2162 -0.1926 0.1711 -0.4053 0.0133 0.2498 0.3758 -0.0121 0.3487 0.2017 0.2399 0.1434 -0.3903 0.0716 -0.2810 0.0355 -0.3243 0.1787 -0.2678 -0.0090 -0.0709 0.0131 -0.5986 0.1578 -0.1234 0.1850 0.2687 -0.2656 0.0717 -0.2713 -0.3152 0.0308 0.3952 0.3462 0.1618 0.1080 0.0853 -0.1643 -0.3771 -0.2812 0.2190 0.0155 -0.0022 -0.2142 -0.3692 -0.1463 0.3660 -0.4858 0.2633 0.0552 0.1464 0.0820 -0.0888 0.3908 -0.0495 -0.2264 -0.3838 -0.0484 0.0605 0.3494 0.4017 0.0523 -0.0769 0.0096 -0.3733 -0.3167 0.0115 0.3214 -0.5023 0.0586 -0.3151 0.1512 -0.0191 -0.2742 0.3749 -0.0432 -0.4606 -0.2461 0.0312 -0.5036 0.0841 -0.0107 -0.4510 0.0680 -0.3784 0.0124 -0.0229 -0.2565 0.0242 0.2723 -0.1331 0.2828 -0.3059 -0.0545 0.2611 0.5068 -0.0946 -0.0853 0.4469 -0.0563 -0.1649 -0.0233 -0.1834 0.0971 -0.1355 0.0142 -0.5912 0.3094 -0.4400 0.2217 -0.3276 0.1378 0.3812 -0.2131 0.4938 0.0258 -0.5214 0.0658 -0.2200 0.1822 -0.0180 -0.5737 -0.3049 0.2169 0.0931 0.1410 -0.0277 0.1079 0.4563 -0.2072 0.0471 -0.0283 0.0036 -0.5244 0.0806 0.1450 -0.0955 0.4565 -0.0572 -0.3448 0.4512 0.3198 0.0953 0.0935 -0.4325 -0.0650 0.2660 -0.0338 -0.5167 0.5093 -0.0671 -0.3176 0.3191 -0.2602 0.3558 -0.3936 0.0949 0.0119 -0.3029 0.4262 0.2059 -0.1821 0.0230 -0.3637 0.2997 -0.1586 0.0851 0.1552 0.2329 0.0026 0.1047 -0.1604 -0.3391 -0.3013 0.4826 0.1299 0.4305 -0.3835 0.0850 -0.1426 0.3661 -0.0019 -0.4134 0.0534 -0.4101 0.5156 0.1101 0.0510 -0.2976 0.3471 0.2430 -0.2934 0.4966 0.0924 -0.1063 -0.0558 0.0119 0.3479 0.2367 0.1801 0.0300 0.0004 -0.5998 0.3445 0.1258 0.0924 -0.3985 0.0502 -0.3256 -0.1492 0.2062 0.0155 0.3699 0.3468 0.0903 0.0497 -0.2987 -0.0704 0.1071 -0.0196 -0.5919 0.1271 0.0913 0.1575 -0.1914 0.0243 -0.5239 0.3030 0.3389 0.0729 0.1508 -0.0888 0.0536 0.4043 -0.0500 -0.4195 -0.3174 0.3778 0.1008 0.3782 0.1338 0.4060 -0.5543 0.0554 -0.1792 0.3287 -0.0468 -0.4965 0.3156 -0.0985 -0.2077 0.2525 -0.2892 0.1027 0.3152 -0.4002 0.2897 -0.2563 0.2605 0.1331 0.2955 -0.0375 -0.1159 -0.2863 -0.1455 0.1162 -0.4170 -0.4008 0.0988 0.2815 -0.0848 0.1364 0.2127 -0.0268 -0.5261 0.3737 0.0718 0.4366 0.5755 -0.0357 -0.1407 0.3536 -0.0949 0.4535 0.0237 -0.2998 -0.2315 -0.3830 -0.2477 0.2987 -0.1590 0.0882 -0.0613 0.2761 -0.1666 0.2406 -0.3220 0.3534 0.3290 0.5584 -0.1625 -0.0478 -0.0818 0.2496 -0.2926 -0.3695 -0.1484 0.2736 -0.2424 0.0306 -0.0644 0.5767 0.0018 -0.0677 0.1599 -0.0202 -0.4408 -0.1558 0.1406 0.0575 -0.3605 -0.1829 0.3000 -0.5300 0.0655 -0.2777 0.3277 -0.1096 0.3782 0.1834 -0.0232 -0.1420 0.3207 -0.3549 0.3353 -0.3893 0.0537 -0.4508 -0.3776 -0.4255 0.0609 0.5290 -0.0713 -0.2655 0.2367 -0.4911 0.0461 0.2765 0.3031 0.0392 0.5607 -0.2034 -0.0122 -0.4607 0.0582 -0.1545 -0.4147 -0.0461 0.2126 -0.3183 0.0373 -0.5079 0.0989 -0.2666 -0.3486 0.0396 -0.2933 -0.3251 0.5873 0.0761 0.0058 -0.3067 0.4704 0.1709 -0.5378 -0.0278 -0.0144 -0.3549 0.0941 0.4477 0.4467 -0.0528 -0.3966 0.0272 0.1228 0.2841 0.5156 0.3047 0.0839 0.5967 0.0432 -0.0283 0.2728 -0.0855 0.2359 0.0992 -0.1405 -0.4796 -0.2734 0.0346 -0.2263 0.0101 -0.1482 0.1558 0.3536 0.2285 0.1039 -0.3266 0.3196 0.3741 0.4684 -0.3593 0.0720 0.0708 -0.0109 -0.6023 -0.2924 0.0802 0.2809 -0.0803 -0.3553 -0.1919 0.5003 -0.0375 -0.0822 -0.5021 -0.2981 0.0867 
</DataArray>
<DataArray type="Float32" Name="Velocity" NumberOfComponents="3" format="ascii">
0.0000 0.0000 0.0000 0.0000 0.0000 0.0000 0.0000 0.0000 0.0000 0.0000 0.0000 0.0000 0.0000 0.0000 0.0000 0.0000 0.0000 0.0000 0.0000 0.0000 0.0000 0.0000 0.0000 0.0000 0.0000 0.0000 0.0000 0.0000 0.0000 0.0000 0.0000 0.0000 0.0000 0.0000 0.0000 0.0000 0.0000 0.0000 0.0000 0.0000 0.0000 0.0000 0.0000 0.0000 0.0000 0.0000 0.0000 0.0000 0.0000 0.0000 0.0000 0.0000 0.0000 0.0000 0.0000 0.0000 0.0000 0.0000 0.0000 0.0000 0.0000 0.0000 0.0000 0.0000 0.0000 0.0000 0.0000 0.0000 0.0000 0.0000 0.0000 0.0000 0.0000 0.0000 0.0000 0.0000 0.0000 0.0000 0.0000 0.0000 0.0000 0.0000 0.0000 0.0000 0.0000 0.0000 0.0000 0.0000 0.0000 0.0000 0.0000 0.0000 0.0000 0.0000 0.0000 0.0000 0.0000 0.0000 0.0000 0.0000 0.0000 0.0000 0.0000 0.0000 0.0000 0.0000 0.0000 0.0000 0.0000 0.0000 0.0000 0.0000 0.0000 0.0000 0.0000 0.0000 0.0000 0.0000 0.0000 0.0000 0.0000 0.0000 0.0000 0.0000 0.0000 0.0000 0.0000 0.0000 0.0000 0.0000 0.0000 0.0000 0.0000 0.0000 0.0000 0.0000 0.0000 0.0000 0.0000 0.0000 0.0000 0.0000 0.0000 0.0000 0.0000 0.0000 0.0000 0.0000 0.0000 0.0000 0.0000 0.0000 0.0000 0.0000 0.0000 0.0000 0.0000 0.0000 0.0000 0.0000 0.0000 0.0000 0.0000 0.0000 0.0000 0.0000 0.0000 0.0000 0.0000 0.0000 0.0000 0.0000 0.0000 0.0000 0.0000 0.0000 0.0000 0.0000 0.0000 0.0000 0.0000 0.0000 0.0000 0.0000 0.0000 0.0000 0.0000 0.0000 0.0000 0.0000 0.0000 0.0000 0.0000 0.0000 0.0000 0.0000 0.0000 0.0000 0.0000 0.0000 0.0000 0.0000 0.0000 0.0000 0.0000 0.0000 0.0000 0.0000 0.0000 0.0000 0.0000 0.0000 0.0000 0.0000 0.0000 0.0000 0.0000 0.0000 0.0000 0.0000 0.0000 0.0000 0.0000 0.0000 0.0000 0.0000 0.0000 0.0000 0.0000 0.0000 0.0000 0.0000 0.0000 0.0000 0.0000 0.0000 0.0000 0.0000 0.0000 0.0000 0.0000 0.0000 0.0000 0.0000 0.0000 0.0000 0.0000 0.0000 0.0000 0.0000 0.0000 0.0000 0.0000 0.0000 0.0000 0.0000 0.0000 0.0000 0.0000 0.0000 0.0000 0.0000 0.0000 0.0000 0.0000 0.0000 0.0000 0.0000 0.0000 0.0000 0.0000 0.0000 0.0000 0.0000 0.0000 0.0000 0.0000 0.0000 0.0000 0.0000 0.0000 0.0000 0.0000 0.0000 0.0000 0.0000 0.0000 0.0000 0.0000 0.0000 0.0000 0.0000 0.0000 0.0000 0.0000 0.0000 0.0000 0.0000 0.0000 0.0000 0.0000 0.0000 0.0000 0.0000 0.0000 0.0000 0.0000 0.0000 0.0000 0.0000 0.0000 0.0000 0.0000 0.0000 0.0000 0.0000 0.0000 0.0000 0.0000 0.0000 0.0000 0.0000 0.0000 0.0000 0.0000 0.0000 0.0000 0.0000 0.0000 0.0000 0.0000 0.0000 0.0000 0.0000 0.0000 0.0000 0.0000 0.0000 0.0000 0.0000 0.0000 0.0000 0.0000 0.0000 0.0000 0.0000 0.0000 0.0000 0.0000 0.0000 0.0000 0.0000 0.0000 0.0000 0.0000 0.0000 0.0000 0.0000 0.0000 0.0000 0.0000 0.0000 0.0000 0.0000 0.0000 0.0000 0.0000 0.0000 0.0000 0.0000 0.0000 0.0000 0.0000 0.0000 0.0000 0.0000 0.0000 0.0000 0.0000 0.0000 0.0000 0.0000 0.0000 0.0000 0.0000 0.0000 0.0000 0.0000 0.0000 0.0000 0.0000 0.0000 0.0000 0.0000 0.0000 0.0000 0.0000 0.0000 0.0000 0.0000 0.0000 0.0000 0.0000 0.0000 0.0000 0.0000 0.0000 0.0000 0.0000 0.0000 0.0000 0.0000 0.0000 0.0000 0.0000 0.0000 0.0000 0.0000 0.0000 0.0000 0.0000 0.0000 0.0000 0.0000 0.0000 0.0000 0.0000 0.0000 0.0000 0.0000 0.0000 0.0000 0.0000 0.0000 0.0000 0.0000 0.0000 0.0000 0.0000 0.0000 0.0000 0.0000 0.0000 0.0000 0.0000 0.0000 0.0000 0.0000 0.0000 0.0000 0.0000 0.0000 0.0000 0.0000 0.0000 0.0000 0.0000 0.0000 0.0000 0.0000 0.0000 0.0000 0.0000 0.0000 0.0000 0.0000 0.0000 0.0000 0.0000 0.0000 0.0000 0.0000 0.0000 0.0000 0.0000 0.0000 0.0000 0.0000 0.0000 0.0000 0.0000 0.0000 0.0000 0.0000 0.0000 0.0000 0.0000 0.0000 0.0000 0.0000 0.0000 0.0000 0.0000 0.0000 0.0000 0.0000 0.0000 0.0000 0.0000 0.0000 0.0000 0.0000 0.0000 0.0000 0.0000 0.0000 0.0000 0.0000 0.0000 0.0000 0.0000 0.0000 0.0000 0.0000 0.0000 0.0000 0.0000 0.0000 0.0000 0.0000 0.0000 0.0000 0.0000 0.0000 0.0000 0.0000 0.0000 0.0000 0.0000 0.0000 0.0000 0.0000 0.0000 0.0000 0.0000 0.0000 0.0000 0.0000 0.0000 0.0000 0.0000 0.0000 0.0000 0.0000 0.0000 0.0000 
</DataArray>
<DataArray type="Float32" Name="Radius" NumberOfComponents="1" format="ascii">
0.2836 0.4013 0.1318 0.2016 0.1180 0.3971 0.2083 0.1983 0.2316 0.1830 0.2083 0.3713 0.4684 0.4068 0.0904 0.1829 0.3563 0.0426 0.3370 0.0706 0.0906 0.2770 0.1479 0.2597 0.1799 0.0357 0.2470 0.1111 0.3861 0.1728 0.2415 0.1488 0.1852 0.4082 0.0789 0.3617 0.1983 0.2946 0.1310 0.1777 0.1186 0.0958 0.1461 0.1204 0.1697 0.2266 0.0285 0.2738 0.2145 0.1500 0.0684 0.3210 0.0978 0.3387 0.0725 0.0663 0.3437 0.1516 0.2290 0.0523 0.2101 0.1609 0.0319 0.2682 0.0319 0.0594 0.1467 0.1322 0.2393 0.1851 0.2074 0.1030 0.1359 0.2829 0.0245 0.0362 0.0912 0.0360 0.0578 0.0281 0.2335 0.3751 0.1181 0.0882 0.3214 0.0469 0.0591 0.0801 0.0418 0.0249 0.0686 0.2172 0.0552 0.1891 0.2694 0.2488 0.1514 0.0359 0.0394 0.1545 0.0395 0.0915 0.0982 0.0338 0.4255 0.1590 0.0297 0.2410 0.0967 0.2990 0.0949 0.2044 0.0293 0.2959 0.0623 0.1153 0.4013 0.0394 0.1161 0.0410 0.0430 0.0311 0.1806 0.2180 0.0308 0.2285 0.2693 0.2762 0.0354 0.2923 0.0539 0.0326 0.0331 0.0287 0.1362 0.0691 0.3517 0.2116 0.0355 0.0407 0.1352 0.1315 0.3295 0.0442 0.1371 0.3589 0.1107 0.0280 0.0997 0.3400 0.0311 0.0302 0.0244 0.0339 0.0381 0.1598 0.0273 0.1295 0.1480 0.0285 0.0812 0.0806 0.0313 0.0323 0.0845 0.0343 0.0294 0.1745 0.0162 0.0255 0.2424 0.0492 0.2341 0.2743 0.1852 0.0231 0.0286 0.0249 0.1995 0.0970 0.1169 0.0313 
</DataArray>
</PointData>
<CellData/>
</Piece>
</UnstructuredGrid>
</VTKFile>
