<?xml version="1.0"?>
<VTKFile type="UnstructuredGrid" version="0.1" byte_order="LittleEndian">
 <UnstructuredGrid>
  <Piece NumberOfPoints="182" NumberOfCells="0">
   <Cells>
    <DataArray type="Int32" name="connectivity" format="ascii">
       0
    </DataArray>
    <DataArray type="Float32" name="offset" format="ascii">
       0
    </DataArray>
    <DataArray type="UInt8" name="types" format="ascii">
       1
    </DataArray>
   </Cells>
   <Points>
<DataArray type="Float32" NumberOfComponents="3" format="ascii">
0.1126 0.1078 -0.1720 0.1729 -0.0278 0.0537 0.1016 0.3384 0.1245 -0.2369 0.1504 -0.2767 0.1382 -0.4489 0.1718 -0.0478 0.1065 -0.0710 0.2899 -0.1839 -0.1827 0.3601 -0.2224 -0.0509 0.2199 0.1691 -0.0646 0.3812 -0.2109 0.0489 0.2045 -0.0652 -0.2824 0.1083 0.0215 -0.1183 0.0146 -0.0463 -0.0139 0.0815 -0.0517 -0.1159 0.2590 -0.1642 -0.4246 0.0156 0.2564 0.2072 -0.2238 0.0026 0.0659 -0.2089 -0.0854 -0.4456 -0.2355 0.0692 0.1316 0.4078 0.2498 -0.0126 -0.1350 -0.0155 -0.4587 -0.2523 0.0434 -0.0813 -0.2065 0.1311 -0.3847 -0.1435 0.2897 0.1510 0.0747 -0.4071 0.0843 0.5249 0.1608 0.1934 0.1714 -0.2511 0.2059 -0.0753 0.4879 0.0974 0.0015 0.0201 0.0959 0.1486 0.2736 -0.1187 -0.1741 0.0431 -0.2585 0.4330 -0.0735 0.1645 -0.2663 0.1513 0.2978 0.1477 -0.1247 0.0713 -0.4229 -0.0210 0.3265 -0.2160 0.1361 0.0402 0.3921 0.0823 0.0963 -0.0725 0.2425 0.1044 0.4815 -0.0239 0.0848 -0.2679 -0.1129 -0.1926 0.0177 0.4396 0.0133 -0.3860 -0.2337 -0.0121 -0.4013 -0.0340 0.2399 0.0364 0.4142 0.0716 0.2391 -0.1517 -0.3243 -0.0476 0.3184 -0.0090 0.0586 -0.0420 -0.5986 -0.0903 0.1788 0.1850 -0.1300 0.3547 0.0717 0.3797 0.1696 0.0308 -0.5050 -0.1450 0.1618 -0.1340 -0.0312 -0.1643 0.4609 0.0939 0.2190 -0.0131 0.0086 -0.2142 0.3963 -0.0248 0.3660 0.3275 -0.4451 0.0552 -0.1673 -0.0119 -0.0888 -0.3325 0.2112 -0.2264 0.3679 -0.1196 0.0605 -0.4872 -0.2147 0.0523 0.0655 -0.0415 -0.3733 0.2817 -0.1452 0.3214 0.4296 -0.2669 -0.3151 -0.1287 0.0817 -0.2742 -0.3208 0.1987 -0.4606 0.2094 -0.1330 -0.5036 -0.0716 0.0455 -0.4510 0.0995 0.3713 0.0124 0.1299 0.2223 0.0242 -0.1897 0.2364 0.2828 0.3000 -0.0809 0.2611 -0.4183 0.3013 -0.0853 -0.3804 0.2412 -0.1649 0.0991 0.1561 0.0971 0.1166 -0.0705 -0.5912 -0.0926 0.5299 0.2217 0.2377 -0.2641 0.3812 -0.0175 -0.5375 0.0258 0.4438 -0.2815 -0.2200 -0.1572 0.0938 -0.5737 0.1835 -0.3261 0.0931 -0.1158 0.0851 0.1079 -0.3247 0.3818 0.0471 0.0241 -0.0153 -0.5244 -0.1346 -0.0968 -0.0955 -0.3887 0.2461 -0.3448 -0.5444 -0.0973 0.0953 0.0996 0.4311 -0.0650 -0.2262 0.1439 -0.5167 -0.4323 0.2776 -0.3176 -0.1779 0.3713 0.3558 0.3157 -0.2534 0.0119 0.0926 -0.5146 0.2059 0.1550 -0.0984 -0.3637 -0.2037 0.2711 0.0851 -0.2396 -0.1447 0.0026 -0.0265 0.1897 -0.3391 0.0671 -0.5649 0.1299 -0.2263 0.5303 0.0850 -0.0268 -0.3920 -0.0019 0.3513 -0.2243 -0.4101 -0.5134 0.1199 0.0510 0.1215 -0.4407 0.2430 0.0540 -0.5742 0.0924 0.1199 0.0052 0.0119 -0.4156 -0.0660 0.1801 -0.0273 0.0124 -0.5998 -0.3653 0.0328 0.0924 0.3392 -0.2151 -0.3256 0.0472 -0.2501 0.0155 -0.4823 -0.1563 0.0903 0.0822 0.2914 -0.0704 -0.0885 0.0633 -0.5919 -0.1539 -0.0285 0.1575 0.1628 -0.1035 -0.5239 -0.4184 -0.1776 0.0729 -0.0987 0.1445 0.0536 -0.3445 0.2174 -0.4195 0.1263 -0.4770 0.1008 -0.3991 0.0400 0.4060 0.4780 -0.2861 -0.1792 -0.2775 0.1823 -0.4965 -0.2436 0.2235 -0.2077 -0.1054 0.3692 0.1027 -0.1148 0.4963 0.2897 0.1210 -0.3448 0.1331 -0.2514 0.1597 -0.1159 0.3210 0.0097 0.1162 0.5479 0.1851 0.0988 -0.2186 0.1966 0.1364 -0.1810 0.1148 -0.5261 -0.3687 0.0942 0.4366 -0.5055 0.2773 -0.1407 -0.2795 0.2364 0.4535 0.1062 0.2813 -0.2315 0.4520 0.0611 0.2987 0.1063 -0.1475 -0.0613 -0.1789 0.2683 0.2406 0.1409 -0.4569 0.3290 -0.4361 0.3848 -0.0478 -0.0323 -0.2607 -0.2926 0.3975 -0.0230 0.2736 0.2063 -0.1309 -0.0644 -0.5226 0.2440 -0.0677 -0.1360 0.0864 -0.4408 0.0811 -0.1936 0.0575 0.4041 0.0120 0.3000 0.4517 -0.2849 -0.2777 -0.2499 0.2387 0.3782 -0.1561 0.0991 -0.1420 -0.1391 0.4577 0.3353 0.3294 -0.2143 -0.4508 0.5229 0.2242 0.0609 -0.4483 0.2897 -0.2655 -0.0050 0.5451 0.0461 -0.3792 -0.1566 0.0392 -0.4207 0.4227 -0.0122 0.3921 -0.2488 -0.1545 0.3949 -0.1348 0.2126 0.2721 -0.1693 -0.5079 0.0240 0.2834 -0.3486 0.0891 0.2823 -0.3251 -0.5638 0.1811 0.0058 0.0772 -0.5562 0.1709 0.4984 -0.2038 -0.0144 0.2810 -0.2362 0.4477 -0.3817 0.2380 -0.3966 -0.0769 -0.0995 0.2841 -0.5963 -0.0561 0.0839 -0.5582 0.2150 -0.0283 -0.2104 0.1935 0.2359 -0.0299 0.1694 -0.4796 0.2326 -0.1477 -0.2263 0.0539 0.1384 0.1558 -0.4173 -0.0562 0.1039 0.1594 -0.4283 0.3741 -0.2708 0.5245 0.0720 -0.0594 0.0400 -0.6023 0.2304 -0.1971 0.2809 0.2239 0.2873 -0.1919 -0.4367 0.2470 -0.0822 0.5812 0.0559 0.0867 
</DataArray>
    </Points>
    <PointData>
<DataArray type="Float32" Name="Position" NumberOfComponents="3" format="ascii">
0.1126 0.1078 -0.1720 0.1729 -0.0278 0.0537 0.1016 0.3384 0.1245 -0.2369 0.1504 -0.2767 0.1382 -0.4489 0.1718 -0.0478 0.1065 -0.0710 0.2899 -0.1839 -0.1827 0.3601 -0.2224 -0.0509 0.2199 0.1691 -0.0646 0.3812 -0.2109 0.0489 0.2045 -0.0652 -0.2824 0.1083 0.0215 -0.1183 0.0146 -0.0463 -0.0139 0.0815 -0.0517 -0.1159 0.2590 -0.1642 -0.4246 0.0156 0.2564 0.2072 -0.2238 0.0026 0.0659 -0.2089 -0.0854 -0.4456 -0.2355 0.0692 0.1316 0.4078 0.2498 -0.0126 -0.1350 -0.0155 -0.4587 -0.2523 0.0434 -0.0813 -0.2065 0.1311 -0.3847 -0.1435 0.2897 0.1510 0.0747 -0.4071 0.0843 0.5249 0.1608 0.1934 0.1714 -0.2511 0.2059 -0.0753 0.4879 0.0974 0.0015 0.0201 0.0959 0.1486 0.2736 -0.1187 -0.1741 0.0431 -0.2585 0.4330 -0.0735 0.1645 -0.2663 0.1513 0.2978 0.1477 -0.1247 0.0713 -0.4229 -0.0210 0.3265 -0.2160 0.1361 0.0402 0.3921 0.0823 0.0963 -0.0725 0.2425 0.1044 0.4815 -0.0239 0.0848 -0.2679 -0.1129 -0.1926 0.0177 0.4396 0.0133 -0.3860 -0.2337 -0.0121 -0.4013 -0.0340 0.2399 0.0364 0.4142 0.0716 0.2391 -0.1517 -0.3243 -0.0476 0.3184 -0.0090 0.0586 -0.0420 -0.5986 -0.0903 0.1788 0.1850 -0.1300 0.3547 0.0717 0.3797 0.1696 0.0308 -0.5050 -0.1450 0.1618 -0.1340 -0.0312 -0.1643 0.4609 0.0939 0.2190 -0.0131 0.0086 -0.2142 0.3963 -0.0248 0.3660 0.3275 -0.4451 0.0552 -0.1673 -0.0119 -0.0888 -0.3325 0.2112 -0.2264 0.3679 -0.1196 0.0605 -0.4872 -0.2147 0.0523 0.0655 -0.0415 -0.3733 0.2817 -0.1452 0.3214 0.4296 -0.2669 -0.3151 -0.1287 0.0817 -0.2742 -0.3208 0.1987 -0.4606 0.2094 -0.1330 -0.5036 -0.0716 0.0455 -0.4510 0.0995 0.3713 0.0124 0.1299 0.2223 0.0242 -0.1897 0.2364 0.2828 0.3000 -0.0809 0.2611 -0.4183 0.3013 -0.0853 -0.3804 0.2412 -0.1649 0.0991 0.1561 0.0971 0.1166 -0.0705 -0.5912 -0.0926 0.5299 0.2217 0.2377 -0.2641 0.3812 -0.0175 -0.5375 0.0258 0.4438 -0.2815 -0.2200 -0.1572 0.0938 -0.5737 0.1835 -0.3261 0.0931 -0.1158 0.0851 0.1079 -0.3247 0.3818 0.0471 0.0241 -0.0153 -0.5244 -0.1346 -0.0968 -0.0955 -0.3887 0.2461 -0.3448 -0.5444 -0.0973 0.0953 0.0996 0.4311 -0.0650 -0.2262 0.1439 -0.5167 -0.4323 0.2776 -0.3176 -0.1779 0.3713 0.3558 0.3157 -0.2534 0.0119 0.0926 -0.5146 0.2059 0.1550 -0.0984 -0.3637 -0.2037 0.2711 0.0851 -0.2396 -0.1447 0.0026 -0.0265 0.1897 -0.3391 0.0671 -0.5649 0.1299 -0.2263 0.5303 0.0850 -0.0268 -0.3920 -0.0019 0.3513 -0.2243 -0.4101 -0.5134 0.1199 0.0510 0.1215 -0.4407 0.2430 0.0540 -0.5742 0.0924 0.1199 0.0052 0.0119 -0.4156 -0.0660 0.1801 -0.0273 0.0124 -0.5998 -0.3653 0.0328 0.0924 0.3392 -0.2151 -0.3256 0.0472 -0.2501 0.0155 -0.4823 -0.1563 0.0903 0.0822 0.2914 -0.0704 -0.0885 0.0633 -0.5919 -0.1539 -0.0285 0.1575 0.1628 -0.1035 -0.5239 -0.4184 -0.1776 0.0729 -0.0987 0.1445 0.0536 -0.3445 0.2174 -0.4195 0.1263 -0.4770 0.1008 -0.3991 0.0400 0.4060 0.4780 -0.2861 -0.1792 -0.2775 0.1823 -0.4965 -0.2436 0.2235 -0.2077 -0.1054 0.3692 0.1027 -0.1148 0.4963 0.2897 0.1210 -0.3448 0.1331 -0.2514 0.1597 -0.1159 0.3210 0.0097 0.1162 0.5479 0.1851 0.0988 -0.2186 0.1966 0.1364 -0.1810 0.1148 -0.5261 -0.3687 0.0942 0.4366 -0.5055 0.2773 -0.1407 -0.2795 0.2364 0.4535 0.1062 0.2813 -0.2315 0.4520 0.0611 0.2987 0.1063 -0.1475 -0.0613 -0.1789 0.2683 0.2406 0.1409 -0.4569 0.3290 -0.4361 0.3848 -0.0478 -0.0323 -0.2607 -0.2926 0.3975 -0.0230 0.2736 0.2063 -0.1309 -0.0644 -0.5226 0.2440 -0.0677 -0.1360 0.0864 -0.4408 0.0811 -0.1936 0.0575 0.4041 0.0120 0.3000 0.4517 -0.2849 -0.2777 -0.2499 0.2387 0.3782 -0.1561 0.0991 -0.1420 -0.1391 0.4577 0.3353 0.3294 -0.2143 -0.4508 0.5229 0.2242 0.0609 -0.4483 0.2897 -0.2655 -0.0050 0.5451 0.0461 -0.3792 -0.1566 0.0392 -0.4207 0.4227 -0.0122 0.3921 -0.2488 -0.1545 0.3949 -0.1348 0.2126 0.2721 -0.1693 -0.5079 0.0240 0.2834 -0.3486 0.0891 0.2823 -0.3251 -0.5638 0.1811 0.0058 0.0772 -0.5562 0.1709 0.4984 -0.2038 -0.0144 0.2810 -0.2362 0.4477 -0.3817 0.2380 -0.3966 -0.0769 -0.0995 0.2841 -0.5963 -0.0561 0.0839 -0.5582 0.2150 -0.0283 -0.2104 0.1935 0.2359 -0.0299 0.1694 -0.4796 0.2326 -0.1477 -0.2263 0.0539 0.1384 0.1558 -0.4173 -0.0562 0.1039 0.1594 -0.4283 0.3741 -0.2708 0.5245 0.0720 -0.0594 0.0400 -0.6023 0.2304 -0.1971 0.2809 0.2239 0.2873 -0.1919 -0.4367 0.2470 -0.0822 0.5812 0.0559 0.0867 
</DataArray>
<DataArray type="Float32" Name="Velocity" NumberOfComponents="3" format="ascii">
0.0000 0.0000 0.0000 0.0000 0.0000 0.0000 0.0000 0.0000 0.0000 0.0000 0.0000 0.0000 0.0000 0.0000 0.0000 0.0000 0.0000 0.0000 0.0000 0.0000 0.0000 0.0000 0.0000 0.0000 0.0000 0.0000 0.0000 0.0000 0.0000 0.0000 0.0000 0.0000 0.0000 0.0000 0.0000 0.0000 0.0000 0.0000 0.0000 0.0000 0.0000 0.0000 0.0000 0.0000 0.0000 0.0000 0.0000 0.0000 0.0000 0.0000 0.0000 0.0000 0.0000 0.0000 0.0000 0.0000 0.0000 0.0000 0.0000 0.0000 0.0000 0.0000 0.0000 0.0000 0.0000 0.0000 0.0000 0.0000 0.0000 0.0000 0.0000 0.0000 0.0000 0.0000 0.0000 0.0000 0.0000 0.0000 0.0000 0.0000 0.0000 0.0000 0.0000 0.0000 0.0000 0.0000 0.0000 0.0000 0.0000 0.0000 0.0000 0.0000 0.0000 0.0000 0.0000 0.0000 0.0000 0.0000 0.0000 0.0000 0.0000 0.0000 0.0000 0.0000 0.0000 0.0000 0.0000 0.0000 0.0000 0.0000 0.0000 0.0000 0.0000 0.0000 0.0000 0.0000 0.0000 0.0000 0.0000 0.0000 0.0000 0.0000 0.0000 0.0000 0.0000 0.0000 0.0000 0.0000 0.0000 0.0000 0.0000 0.0000 0.0000 0.0000 0.0000 0.0000 0.0000 0.0000 0.0000 0.0000 0.0000 0.0000 0.0000 0.0000 0.0000 0.0000 0.0000 0.0000 0.0000 0.0000 0.0000 0.0000 0.0000 0.0000 0.0000 0.0000 0.0000 0.0000 0.0000 0.0000 0.0000 0.0000 0.0000 0.0000 0.0000 0.0000 0.0000 0.0000 0.0000 0.0000 0.0000 0.0000 0.0000 0.0000 0.0000 0.0000 0.0000 0.0000 0.0000 0.0000 0.0000 0.0000 0.0000 0.0000 0.0000 0.0000 0.0000 0.0000 0.0000 0.0000 0.0000 0.0000 0.0000 0.0000 0.0000 0.0000 0.0000 0.0000 0.0000 0.0000 0.0000 0.0000 0.0000 0.0000 0.0000 0.0000 0.0000 0.0000 0.0000 0.0000 0.0000 0.0000 0.0000 0.0000 0.0000 0.0000 0.0000 0.0000 0.0000 0.0000 0.0000 0.0000 0.0000 0.0000 0.0000 0.0000 0.0000 0.0000 0.0000 0.0000 0.0000 0.0000 0.0000 0.0000 0.0000 0.0000 0.0000 0.0000 0.0000 0.0000 0.0000 0.0000 0.0000 0.0000 0.0000 0.0000 0.0000 0.0000 0.0000 0.0000 0.0000 0.0000 0.0000 0.0000 0.0000 0.0000 0.0000 0.0000 0.0000 0.0000 0.0000 0.0000 0.0000 0.0000 0.0000 0.0000 0.0000 0.0000 0.0000 0.0000 0.0000 0.0000 0.0000 0.0000 0.0000 0.0000 0.0000 0.0000 0.0000 0.0000 0.0000 0.0000 0.0000 0.0000 0.0000 0.0000 0.0000 0.0000 0.0000 0.0000 0.0000 0.0000 0.0000 0.0000 0.0000 0.0000 0.0000 0.0000 0.0000 0.0000 0.0000 0.0000 0.0000 0.0000 0.0000 0.0000 0.0000 0.0000 0.0000 0.0000 0.0000 0.0000 0.0000 0.0000 0.0000 0.0000 0.0000 0.0000 0.0000 0.0000 0.0000 0.0000 0.0000 0.0000 0.0000 0.0000 0.0000 0.0000 0.0000 0.0000 0.0000 0.0000 0.0000 0.0000 0.0000 0.0000 0.0000 0.0000 0.0000 0.0000 0.0000 0.0000 0.0000 0.0000 0.0000 0.0000 0.0000 0.0000 0.0000 0.0000 0.0000 0.0000 0.0000 0.0000 0.0000 0.0000 0.0000 0.0000 0.0000 0.0000 0.0000 0.0000 0.0000 0.0000 0.0000 0.0000 0.0000 0.0000 0.0000 0.0000 0.0000 0.0000 0.0000 0.0000 0.0000 0.0000 0.0000 0.0000 0.0000 0.0000 0.0000 0.0000 0.0000 0.0000 0.0000 0.0000 0.0000 0.0000 0.0000 0.0000 0.0000 0.0000 0.0000 0.0000 0.0000 0.0000 0.0000 0.0000 0.0000 0.0000 0.0000 0.0000 0.0000 0.0000 0.0000 0.0000 0.0000 0.0000 0.0000 0.0000 0.0000 0.0000 0.0000 0.0000 0.0000 0.0000 0.0000 0.0000 0.0000 0.0000 0.0000 0.0000 0.0000 0.0000 0.0000 0.0000 0.0000 0.0000 0.0000 0.0000 0.0000 0.0000 0.0000 0.0000 0.0000 0.0000 0.0000 0.0000 0.0000 0.0000 0.0000 0.0000 0.0000 0.0000 0.0000 0.0000 0.0000 0.0000 0.0000 0.0000 0.0000 0.0000 0.0000 0.0000 0.0000 0.0000 0.0000 0.0000 0.0000 0.0000 0.0000 0.0000 0.0000 0.0000 0.0000 0.0000 0.0000 0.0000 0.0000 0.0000 0.0000 0.0000 0.0000 0.0000 0.0000 0.0000 0.0000 0.0000 0.0000 0.0000 0.0000 0.0000 0.0000 0.0000 0.0000 0.0000 0.0000 0.0000 0.0000 0.0000 0.0000 0.0000 0.0000 0.0000 0.0000 0.0000 0.0000 0.0000 0.0000 0.0000 0.0000 0.0000 0.0000 0.0000 0.0000 0.0000 0.0000 0.0000 0.0000 0.0000 0.0000 0.0000 0.0000 0.0000 0.0000 0.0000 0.0000 0.0000 0.0000 0.0000 0.0000 0.0000 0.0000 0.0000 0.0000 0.0000 0.0000 0.0000 0.0000 0.0000 0.0000 0.0000 0.0000 0.0000 0.0000 0.0000 0.0000 0.0000 0.0000 0.0000 0.0000 0.0000 0.0000 0.0000 0.0000 0.0000 
</DataArray>
<DataArray type="Float32" Name="Radius" NumberOfComponents="1" format="ascii">
0.2836 0.4013 0.1318 0.2016 0.1180 0.3971 0.2083 0.1983 0.2316 0.1830 0.2083 0.3713 0.4684 0.4068 0.0904 0.1829 0.3563 0.0426 0.3370 0.0706 0.0906 0.2770 0.1479 0.2597 0.1799 0.0357 0.2470 0.1111 0.3861 0.1728 0.2415 0.1488 0.1852 0.4082 0.0789 0.3617 0.1983 0.2946 0.1310 0.1777 0.1186 0.0958 0.1461 0.1204 0.1697 0.2266 0.0285 0.2738 0.2145 0.1500 0.0684 0.3210 0.0978 0.3387 0.0725 0.0663 0.3437 0.1516 0.2290 0.0523 0.2101 0.1609 0.0319 0.2682 0.0319 0.0594 0.1467 0.1322 0.2393 0.1851 0.2074 0.1030 0.1359 0.2829 0.0245 0.0362 0.0912 0.0360 0.0578 0.0281 0.2335 0.3751 0.1181 0.0882 0.3214 0.0469 0.0591 0.0801 0.0418 0.0249 0.0686 0.2172 0.0552 0.1891 0.2694 0.2488 0.1514 0.0359 0.0394 0.1545 0.0395 0.0915 0.0982 0.0338 0.4255 0.1590 0.0297 0.2410 0.0967 0.2990 0.0949 0.2044 0.0293 0.2959 0.0623 0.1153 0.4013 0.0394 0.1161 0.0410 0.0430 0.0311 0.1806 0.2180 0.0308 0.2285 0.2693 0.2762 0.0354 0.2923 0.0539 0.0326 0.0331 0.0287 0.1362 0.0691 0.3517 0.2116 0.0355 0.0407 0.1352 0.1315 0.3295 0.0442 0.1371 0.3589 0.1107 0.0280 0.0997 0.3400 0.0311 0.0302 0.0244 0.0339 0.0381 0.1598 0.0273 0.1295 0.1480 0.0285 0.0812 0.0806 0.0313 0.0323 0.0845 0.0343 0.0294 0.1745 0.0162 0.0255 0.2424 0.0492 0.2341 0.2743 0.1852 0.0231 0.0286 0.0249 0.1995 0.0970 0.1169 0.0313 
</DataArray>
</PointData>
<CellData/>
</Piece>
</UnstructuredGrid>
</VTKFile>
