<?xml version="1.0"?>
<VTKFile type="UnstructuredGrid" version="0.1" byte_order="LittleEndian">
 <UnstructuredGrid>
  <Piece NumberOfPoints="182" NumberOfCells="0">
   <Cells>
    <DataArray type="Int32" name="connectivity" format="ascii">
       0
    </DataArray>
    <DataArray type="Float32" name="offset" format="ascii">
       0
    </DataArray>
    <DataArray type="UInt8" name="types" format="ascii">
       1
    </DataArray>
   </Cells>
   <Points>
<DataArray type="Float32" NumberOfComponents="3" format="ascii">
0.0982 0.1211 -0.1720 0.1750 -0.0059 0.0537 0.0584 0.3485 0.1245 -0.2539 0.1195 -0.2767 0.1933 -0.4280 0.1718 -0.0608 0.0997 -0.0710 0.3106 -0.1462 -0.1827 0.3851 -0.1755 -0.0509 0.1969 0.1953 -0.0646 0.4047 -0.1614 0.0489 0.2111 -0.0390 -0.2824 0.1047 0.0349 -0.1183 0.0203 -0.0441 -0.0139 0.0873 -0.0411 -0.1159 0.2775 -0.1305 -0.4246 -0.0167 0.2563 0.2072 -0.2224 -0.0255 0.0659 -0.1966 -0.1109 -0.4456 -0.2423 0.0391 0.1316 0.3732 0.2989 -0.0126 -0.1320 -0.0323 -0.4587 -0.2557 0.0114 -0.0813 -0.2213 0.1041 -0.3847 -0.1786 0.2695 0.1510 0.1252 -0.3945 0.0843 0.5007 0.2253 0.1934 0.2015 -0.2277 0.2059 -0.1359 0.4746 0.0974 -0.0010 0.0201 0.0959 0.1131 0.2901 -0.1187 -0.1781 0.0209 -0.2585 0.4388 -0.0186 0.1645 -0.2832 0.1167 0.2978 0.1622 -0.1052 0.0713 -0.4169 -0.0739 0.3265 -0.2314 0.1080 0.0402 0.3787 0.1308 0.0963 -0.1023 0.2315 0.1044 0.4807 0.0367 0.0848 -0.2516 -0.1455 -0.1926 -0.0375 0.4384 0.0133 -0.3537 -0.2802 -0.0121 -0.3939 -0.0840 0.2399 -0.0158 0.4155 0.0716 0.2562 -0.1206 -0.3243 -0.0872 0.3099 -0.0090 0.0634 -0.0343 -0.5986 -0.1120 0.1661 0.1850 -0.1735 0.3356 0.0717 0.3555 0.2159 0.0308 -0.4829 -0.2071 0.1618 -0.1290 -0.0478 -0.1643 0.4455 0.1509 0.2190 -0.0140 0.0069 -0.2142 0.3963 0.0250 0.3660 0.3807 -0.4005 0.0552 -0.1645 -0.0328 -0.0888 -0.3563 0.1678 -0.2264 0.3800 -0.0726 0.0605 -0.4565 -0.2741 0.0523 0.0702 -0.0329 -0.3733 0.2977 -0.1088 0.3214 0.4596 -0.2110 -0.3151 -0.1379 0.0649 -0.2742 -0.3432 0.1569 -0.4606 0.2244 -0.1057 -0.5036 -0.0767 0.0362 -0.4510 0.0522 0.3809 0.0124 0.1010 0.2369 0.0242 -0.2178 0.2107 0.2828 0.3078 -0.0427 0.2611 -0.4527 0.2465 -0.0853 -0.4076 0.1917 -0.1649 0.0788 0.1673 0.0971 0.1245 -0.0554 -0.5912 -0.1583 0.5141 0.2217 0.2689 -0.2322 0.3812 0.0500 -0.5354 0.0258 0.4756 -0.2237 -0.2200 -0.1677 0.0734 -0.5737 0.2230 -0.3006 0.0931 -0.1255 0.0699 0.1079 -0.3700 0.3381 0.0471 0.0258 -0.0122 -0.5244 -0.1214 -0.1130 -0.0955 -0.4165 0.1954 -0.3448 -0.5279 -0.1647 0.0953 0.0448 0.4402 -0.0650 -0.2425 0.1144 -0.5167 -0.4637 0.2212 -0.3176 -0.2230 0.3461 0.3558 0.3450 -0.2119 0.0119 0.1563 -0.4989 0.2059 0.1661 -0.0782 -0.3637 -0.2360 0.2434 0.0851 -0.2195 -0.1736 0.0026 -0.0500 0.1849 -0.3391 0.1374 -0.5521 0.1299 -0.2910 0.4978 0.0850 0.0225 -0.3923 -0.0019 0.3767 -0.1785 -0.4101 -0.5244 0.0546 0.0510 0.1758 -0.4220 0.2430 0.1256 -0.5629 0.0924 0.1183 0.0202 0.0119 -0.4040 -0.1176 0.1801 -0.0286 0.0089 -0.5998 -0.3665 -0.0132 0.0924 0.3635 -0.1709 -0.3256 0.0782 -0.2422 0.0155 -0.4589 -0.2155 0.0903 0.0451 0.2994 -0.0704 -0.0958 0.0517 -0.5919 -0.1491 -0.0475 0.1575 0.1745 -0.0823 -0.5239 -0.3929 -0.2287 0.0729 -0.1160 0.1310 0.0536 -0.3690 0.1725 -0.4195 0.1851 -0.4574 0.1008 -0.4010 -0.0104 0.4060 0.5101 -0.2240 -0.1792 -0.2981 0.1461 -0.4965 -0.2697 0.1912 -0.2077 -0.1508 0.3531 0.1027 -0.1761 0.4780 0.2897 0.1633 -0.3269 0.1331 -0.2694 0.1269 -0.1159 0.3172 0.0499 0.1162 0.5204 0.2523 0.0988 -0.2415 0.1676 0.1364 -0.1940 0.0912 -0.5261 -0.3776 0.0472 0.4366 -0.5363 0.2117 -0.1407 -0.3070 0.1995 0.4535 0.0701 0.2924 -0.2315 0.4407 0.1172 0.2987 0.1240 -0.1330 -0.0613 -0.2111 0.2438 0.2406 0.1971 -0.4356 0.3290 -0.4809 0.3271 -0.0478 0.0007 -0.2627 -0.2926 0.3973 0.0270 0.2736 0.2211 -0.1040 -0.0644 -0.5491 0.1765 -0.0677 -0.1458 0.0687 -0.4408 0.1048 -0.1819 0.0575 0.3994 0.0626 0.3000 0.4838 -0.2260 -0.2777 -0.2778 0.2055 0.3782 -0.1673 0.0787 -0.1420 -0.1953 0.4366 0.3353 0.3537 -0.1714 -0.4508 0.4906 0.2879 0.0609 -0.4811 0.2312 -0.2655 -0.0733 0.5402 0.0461 -0.3566 -0.2029 0.0392 -0.4704 0.3667 -0.0122 0.4202 -0.1977 -0.1545 0.4087 -0.0843 0.2126 0.2912 -0.1339 -0.5079 -0.0117 0.2842 -0.3486 0.0530 0.2912 -0.3251 -0.5820 0.1091 0.0058 0.1463 -0.5422 0.1709 0.5200 -0.1397 -0.0144 0.3084 -0.1991 0.4477 -0.4085 0.1883 -0.3966 -0.0638 -0.1084 0.2841 -0.5846 -0.1304 0.0839 -0.5808 0.1433 -0.0283 -0.2330 0.1656 0.2359 -0.0509 0.1643 -0.4796 0.2493 -0.1174 -0.2263 0.0362 0.1440 0.1558 -0.4070 -0.1081 0.1039 0.2118 -0.4049 0.3741 -0.3344 0.4865 0.0720 -0.0639 0.0322 -0.6023 0.2533 -0.1667 0.2809 0.1861 0.3131 -0.1919 -0.4642 0.1903 -0.0822 0.5696 0.1283 0.0867 
</DataArray>
    </Points>
    <PointData>
<DataArray type="Float32" Name="Position" NumberOfComponents="3" format="ascii">
0.0982 0.1211 -0.1720 0.1750 -0.0059 0.0537 0.0584 0.3485 0.1245 -0.2539 0.1195 -0.2767 0.1933 -0.4280 0.1718 -0.0608 0.0997 -0.0710 0.3106 -0.1462 -0.1827 0.3851 -0.1755 -0.0509 0.1969 0.1953 -0.0646 0.4047 -0.1614 0.0489 0.2111 -0.0390 -0.2824 0.1047 0.0349 -0.1183 0.0203 -0.0441 -0.0139 0.0873 -0.0411 -0.1159 0.2775 -0.1305 -0.4246 -0.0167 0.2563 0.2072 -0.2224 -0.0255 0.0659 -0.1966 -0.1109 -0.4456 -0.2423 0.0391 0.1316 0.3732 0.2989 -0.0126 -0.1320 -0.0323 -0.4587 -0.2557 0.0114 -0.0813 -0.2213 0.1041 -0.3847 -0.1786 0.2695 0.1510 0.1252 -0.3945 0.0843 0.5007 0.2253 0.1934 0.2015 -0.2277 0.2059 -0.1359 0.4746 0.0974 -0.0010 0.0201 0.0959 0.1131 0.2901 -0.1187 -0.1781 0.0209 -0.2585 0.4388 -0.0186 0.1645 -0.2832 0.1167 0.2978 0.1622 -0.1052 0.0713 -0.4169 -0.0739 0.3265 -0.2314 0.1080 0.0402 0.3787 0.1308 0.0963 -0.1023 0.2315 0.1044 0.4807 0.0367 0.0848 -0.2516 -0.1455 -0.1926 -0.0375 0.4384 0.0133 -0.3537 -0.2802 -0.0121 -0.3939 -0.0840 0.2399 -0.0158 0.4155 0.0716 0.2562 -0.1206 -0.3243 -0.0872 0.3099 -0.0090 0.0634 -0.0343 -0.5986 -0.1120 0.1661 0.1850 -0.1735 0.3356 0.0717 0.3555 0.2159 0.0308 -0.4829 -0.2071 0.1618 -0.1290 -0.0478 -0.1643 0.4455 0.1509 0.2190 -0.0140 0.0069 -0.2142 0.3963 0.0250 0.3660 0.3807 -0.4005 0.0552 -0.1645 -0.0328 -0.0888 -0.3563 0.1678 -0.2264 0.3800 -0.0726 0.0605 -0.4565 -0.2741 0.0523 0.0702 -0.0329 -0.3733 0.2977 -0.1088 0.3214 0.4596 -0.2110 -0.3151 -0.1379 0.0649 -0.2742 -0.3432 0.1569 -0.4606 0.2244 -0.1057 -0.5036 -0.0767 0.0362 -0.4510 0.0522 0.3809 0.0124 0.1010 0.2369 0.0242 -0.2178 0.2107 0.2828 0.3078 -0.0427 0.2611 -0.4527 0.2465 -0.0853 -0.4076 0.1917 -0.1649 0.0788 0.1673 0.0971 0.1245 -0.0554 -0.5912 -0.1583 0.5141 0.2217 0.2689 -0.2322 0.3812 0.0500 -0.5354 0.0258 0.4756 -0.2237 -0.2200 -0.1677 0.0734 -0.5737 0.2230 -0.3006 0.0931 -0.1255 0.0699 0.1079 -0.3700 0.3381 0.0471 0.0258 -0.0122 -0.5244 -0.1214 -0.1130 -0.0955 -0.4165 0.1954 -0.3448 -0.5279 -0.1647 0.0953 0.0448 0.4402 -0.0650 -0.2425 0.1144 -0.5167 -0.4637 0.2212 -0.3176 -0.2230 0.3461 0.3558 0.3450 -0.2119 0.0119 0.1563 -0.4989 0.2059 0.1661 -0.0782 -0.3637 -0.2360 0.2434 0.0851 -0.2195 -0.1736 0.0026 -0.0500 0.1849 -0.3391 0.1374 -0.5521 0.1299 -0.2910 0.4978 0.0850 0.0225 -0.3923 -0.0019 0.3767 -0.1785 -0.4101 -0.5244 0.0546 0.0510 0.1758 -0.4220 0.2430 0.1256 -0.5629 0.0924 0.1183 0.0202 0.0119 -0.4040 -0.1176 0.1801 -0.0286 0.0089 -0.5998 -0.3665 -0.0132 0.0924 0.3635 -0.1709 -0.3256 0.0782 -0.2422 0.0155 -0.4589 -0.2155 0.0903 0.0451 0.2994 -0.0704 -0.0958 0.0517 -0.5919 -0.1491 -0.0475 0.1575 0.1745 -0.0823 -0.5239 -0.3929 -0.2287 0.0729 -0.1160 0.1310 0.0536 -0.3690 0.1725 -0.4195 0.1851 -0.4574 0.1008 -0.4010 -0.0104 0.4060 0.5101 -0.2240 -0.1792 -0.2981 0.1461 -0.4965 -0.2697 0.1912 -0.2077 -0.1508 0.3531 0.1027 -0.1761 0.4780 0.2897 0.1633 -0.3269 0.1331 -0.2694 0.1269 -0.1159 0.3172 0.0499 0.1162 0.5204 0.2523 0.0988 -0.2415 0.1676 0.1364 -0.1940 0.0912 -0.5261 -0.3776 0.0472 0.4366 -0.5363 0.2117 -0.1407 -0.3070 0.1995 0.4535 0.0701 0.2924 -0.2315 0.4407 0.1172 0.2987 0.1240 -0.1330 -0.0613 -0.2111 0.2438 0.2406 0.1971 -0.4356 0.3290 -0.4809 0.3271 -0.0478 0.0007 -0.2627 -0.2926 0.3973 0.0270 0.2736 0.2211 -0.1040 -0.0644 -0.5491 0.1765 -0.0677 -0.1458 0.0687 -0.4408 0.1048 -0.1819 0.0575 0.3994 0.0626 0.3000 0.4838 -0.2260 -0.2777 -0.2778 0.2055 0.3782 -0.1673 0.0787 -0.1420 -0.1953 0.4366 0.3353 0.3537 -0.1714 -0.4508 0.4906 0.2879 0.0609 -0.4811 0.2312 -0.2655 -0.0733 0.5402 0.0461 -0.3566 -0.2029 0.0392 -0.4704 0.3667 -0.0122 0.4202 -0.1977 -0.1545 0.4087 -0.0843 0.2126 0.2912 -0.1339 -0.5079 -0.0117 0.2842 -0.3486 0.0530 0.2912 -0.3251 -0.5820 0.1091 0.0058 0.1463 -0.5422 0.1709 0.5200 -0.1397 -0.0144 0.3084 -0.1991 0.4477 -0.4085 0.1883 -0.3966 -0.0638 -0.1084 0.2841 -0.5846 -0.1304 0.0839 -0.5808 0.1433 -0.0283 -0.2330 0.1656 0.2359 -0.0509 0.1643 -0.4796 0.2493 -0.1174 -0.2263 0.0362 0.1440 0.1558 -0.4070 -0.1081 0.1039 0.2118 -0.4049 0.3741 -0.3344 0.4865 0.0720 -0.0639 0.0322 -0.6023 0.2533 -0.1667 0.2809 0.1861 0.3131 -0.1919 -0.4642 0.1903 -0.0822 0.5696 0.1283 0.0867 
</DataArray>
<DataArray type="Float32" Name="Velocity" NumberOfComponents="3" format="ascii">
0.0000 0.0000 0.0000 0.0000 0.0000 0.0000 0.0000 0.0000 0.0000 0.0000 0.0000 0.0000 0.0000 0.0000 0.0000 0.0000 0.0000 0.0000 0.0000 0.0000 0.0000 0.0000 0.0000 0.0000 0.0000 0.0000 0.0000 0.0000 0.0000 0.0000 0.0000 0.0000 0.0000 0.0000 0.0000 0.0000 0.0000 0.0000 0.0000 0.0000 0.0000 0.0000 0.0000 0.0000 0.0000 0.0000 0.0000 0.0000 0.0000 0.0000 0.0000 0.0000 0.0000 0.0000 0.0000 0.0000 0.0000 0.0000 0.0000 0.0000 0.0000 0.0000 0.0000 0.0000 0.0000 0.0000 0.0000 0.0000 0.0000 0.0000 0.0000 0.0000 0.0000 0.0000 0.0000 0.0000 0.0000 0.0000 0.0000 0.0000 0.0000 0.0000 0.0000 0.0000 0.0000 0.0000 0.0000 0.0000 0.0000 0.0000 0.0000 0.0000 0.0000 0.0000 0.0000 0.0000 0.0000 0.0000 0.0000 0.0000 0.0000 0.0000 0.0000 0.0000 0.0000 0.0000 0.0000 0.0000 0.0000 0.0000 0.0000 0.0000 0.0000 0.0000 0.0000 0.0000 0.0000 0.0000 0.0000 0.0000 0.0000 0.0000 0.0000 0.0000 0.0000 0.0000 0.0000 0.0000 0.0000 0.0000 0.0000 0.0000 0.0000 0.0000 0.0000 0.0000 0.0000 0.0000 0.0000 0.0000 0.0000 0.0000 0.0000 0.0000 0.0000 0.0000 0.0000 0.0000 0.0000 0.0000 0.0000 0.0000 0.0000 0.0000 0.0000 0.0000 0.0000 0.0000 0.0000 0.0000 0.0000 0.0000 0.0000 0.0000 0.0000 0.0000 0.0000 0.0000 0.0000 0.0000 0.0000 0.0000 0.0000 0.0000 0.0000 0.0000 0.0000 0.0000 0.0000 0.0000 0.0000 0.0000 0.0000 0.0000 0.0000 0.0000 0.0000 0.0000 0.0000 0.0000 0.0000 0.0000 0.0000 0.0000 0.0000 0.0000 0.0000 0.0000 0.0000 0.0000 0.0000 0.0000 0.0000 0.0000 0.0000 0.0000 0.0000 0.0000 0.0000 0.0000 0.0000 0.0000 0.0000 0.0000 0.0000 0.0000 0.0000 0.0000 0.0000 0.0000 0.0000 0.0000 0.0000 0.0000 0.0000 0.0000 0.0000 0.0000 0.0000 0.0000 0.0000 0.0000 0.0000 0.0000 0.0000 0.0000 0.0000 0.0000 0.0000 0.0000 0.0000 0.0000 0.0000 0.0000 0.0000 0.0000 0.0000 0.0000 0.0000 0.0000 0.0000 0.0000 0.0000 0.0000 0.0000 0.0000 0.0000 0.0000 0.0000 0.0000 0.0000 0.0000 0.0000 0.0000 0.0000 0.0000 0.0000 0.0000 0.0000 0.0000 0.0000 0.0000 0.0000 0.0000 0.0000 0.0000 0.0000 0.0000 0.0000 0.0000 0.0000 0.0000 0.0000 0.0000 0.0000 0.0000 0.0000 0.0000 0.0000 0.0000 0.0000 0.0000 0.0000 0.0000 0.0000 0.0000 0.0000 0.0000 0.0000 0.0000 0.0000 0.0000 0.0000 0.0000 0.0000 0.0000 0.0000 0.0000 0.0000 0.0000 0.0000 0.0000 0.0000 0.0000 0.0000 0.0000 0.0000 0.0000 0.0000 0.0000 0.0000 0.0000 0.0000 0.0000 0.0000 0.0000 0.0000 0.0000 0.0000 0.0000 0.0000 0.0000 0.0000 0.0000 0.0000 0.0000 0.0000 0.0000 0.0000 0.0000 0.0000 0.0000 0.0000 0.0000 0.0000 0.0000 0.0000 0.0000 0.0000 0.0000 0.0000 0.0000 0.0000 0.0000 0.0000 0.0000 0.0000 0.0000 0.0000 0.0000 0.0000 0.0000 0.0000 0.0000 0.0000 0.0000 0.0000 0.0000 0.0000 0.0000 0.0000 0.0000 0.0000 0.0000 0.0000 0.0000 0.0000 0.0000 0.0000 0.0000 0.0000 0.0000 0.0000 0.0000 0.0000 0.0000 0.0000 0.0000 0.0000 0.0000 0.0000 0.0000 0.0000 0.0000 0.0000 0.0000 0.0000 0.0000 0.0000 0.0000 0.0000 0.0000 0.0000 0.0000 0.0000 0.0000 0.0000 0.0000 0.0000 0.0000 0.0000 0.0000 0.0000 0.0000 0.0000 0.0000 0.0000 0.0000 0.0000 0.0000 0.0000 0.0000 0.0000 0.0000 0.0000 0.0000 0.0000 0.0000 0.0000 0.0000 0.0000 0.0000 0.0000 0.0000 0.0000 0.0000 0.0000 0.0000 0.0000 0.0000 0.0000 0.0000 0.0000 0.0000 0.0000 0.0000 0.0000 0.0000 0.0000 0.0000 0.0000 0.0000 0.0000 0.0000 0.0000 0.0000 0.0000 0.0000 0.0000 0.0000 0.0000 0.0000 0.0000 0.0000 0.0000 0.0000 0.0000 0.0000 0.0000 0.0000 0.0000 0.0000 0.0000 0.0000 0.0000 0.0000 0.0000 0.0000 0.0000 0.0000 0.0000 0.0000 0.0000 0.0000 0.0000 0.0000 0.0000 0.0000 0.0000 0.0000 0.0000 0.0000 0.0000 0.0000 0.0000 0.0000 0.0000 0.0000 0.0000 0.0000 0.0000 0.0000 0.0000 0.0000 0.0000 0.0000 0.0000 0.0000 0.0000 0.0000 0.0000 0.0000 0.0000 0.0000 0.0000 0.0000 0.0000 0.0000 0.0000 0.0000 0.0000 0.0000 0.0000 0.0000 0.0000 0.0000 0.0000 0.0000 0.0000 0.0000 0.0000 0.0000 0.0000 0.0000 0.0000 0.0000 0.0000 0.0000 0.0000 0.0000 0.0000 0.0000 0.0000 0.0000 0.0000 0.0000 
</DataArray>
<DataArray type="Float32" Name="Radius" NumberOfComponents="1" format="ascii">
0.2836 0.4013 0.1318 0.2016 0.1180 0.3971 0.2083 0.1983 0.2316 0.1830 0.2083 0.3713 0.4684 0.4068 0.0904 0.1829 0.3563 0.0426 0.3370 0.0706 0.0906 0.2770 0.1479 0.2597 0.1799 0.0357 0.2470 0.1111 0.3861 0.1728 0.2415 0.1488 0.1852 0.4082 0.0789 0.3617 0.1983 0.2946 0.1310 0.1777 0.1186 0.0958 0.1461 0.1204 0.1697 0.2266 0.0285 0.2738 0.2145 0.1500 0.0684 0.3210 0.0978 0.3387 0.0725 0.0663 0.3437 0.1516 0.2290 0.0523 0.2101 0.1609 0.0319 0.2682 0.0319 0.0594 0.1467 0.1322 0.2393 0.1851 0.2074 0.1030 0.1359 0.2829 0.0245 0.0362 0.0912 0.0360 0.0578 0.0281 0.2335 0.3751 0.1181 0.0882 0.3214 0.0469 0.0591 0.0801 0.0418 0.0249 0.0686 0.2172 0.0552 0.1891 0.2694 0.2488 0.1514 0.0359 0.0394 0.1545 0.0395 0.0915 0.0982 0.0338 0.4255 0.1590 0.0297 0.2410 0.0967 0.2990 0.0949 0.2044 0.0293 0.2959 0.0623 0.1153 0.4013 0.0394 0.1161 0.0410 0.0430 0.0311 0.1806 0.2180 0.0308 0.2285 0.2693 0.2762 0.0354 0.2923 0.0539 0.0326 0.0331 0.0287 0.1362 0.0691 0.3517 0.2116 0.0355 0.0407 0.1352 0.1315 0.3295 0.0442 0.1371 0.3589 0.1107 0.0280 0.0997 0.3400 0.0311 0.0302 0.0244 0.0339 0.0381 0.1598 0.0273 0.1295 0.1480 0.0285 0.0812 0.0806 0.0313 0.0323 0.0845 0.0343 0.0294 0.1745 0.0162 0.0255 0.2424 0.0492 0.2341 0.2743 0.1852 0.0231 0.0286 0.0249 0.1995 0.0970 0.1169 0.0313 
</DataArray>
</PointData>
<CellData/>
</Piece>
</UnstructuredGrid>
</VTKFile>
