<?xml version="1.0"?>
<VTKFile type="UnstructuredGrid" version="0.1" byte_order="LittleEndian">
 <UnstructuredGrid>
  <Piece NumberOfPoints="182" NumberOfCells="0">
   <Cells>
    <DataArray type="Int32" name="connectivity" format="ascii">
       0
    </DataArray>
    <DataArray type="Float32" name="offset" format="ascii">
       0
    </DataArray>
    <DataArray type="UInt8" name="types" format="ascii">
       1
    </DataArray>
   </Cells>
   <Points>
<DataArray type="Float32" NumberOfComponents="3" format="ascii">
-0.0588 0.1444 -0.1720 0.0895 0.1505 0.0537 -0.2773 0.2191 0.1245 -0.2270 -0.1649 -0.2767 0.4682 -0.0368 0.1718 -0.1167 -0.0053 -0.0710 0.2777 0.2018 -0.1827 0.3394 0.2529 -0.0509 -0.0762 0.2667 -0.0646 0.3364 0.2768 0.0489 0.1359 0.1662 -0.2824 0.0199 0.1086 -0.1183 0.0484 -0.0034 -0.0139 0.0780 0.0567 -0.1159 0.2481 0.1803 -0.4246 -0.2326 0.1089 0.2072 -0.0848 -0.2071 0.0659 0.0025 -0.2257 -0.4456 -0.1510 -0.1935 0.1316 -0.0821 0.4711 -0.0126 -0.0353 -0.1312 -0.4587 -0.1332 -0.2186 -0.0813 -0.1979 -0.1437 -0.3847 -0.3222 -0.0267 0.1510 0.4060 -0.0804 0.0843 0.0437 0.5473 0.1934 0.2966 0.0669 0.2059 -0.4814 0.1096 0.0974 -0.0181 0.0088 0.0959 -0.1997 0.2389 -0.1187 -0.1042 -0.1460 -0.2585 0.2277 0.3755 0.1645 -0.2387 -0.1919 0.2978 0.1703 0.0915 0.0713 -0.1361 -0.4009 0.3265 -0.2061 -0.1507 0.0402 0.0678 0.3949 0.0963 -0.2522 0.0218 0.1044 0.1994 0.4389 0.0848 0.0063 -0.2906 -0.1926 -0.4022 0.1783 0.0133 0.0752 -0.4449 -0.0121 -0.1161 -0.3857 0.2399 -0.3717 0.1864 0.0716 0.2291 0.1665 -0.3243 -0.3136 0.0729 -0.0090 0.0606 0.0390 -0.5986 -0.1995 -0.0181 0.1850 -0.3776 0.0097 0.0717 -0.0179 0.4155 0.0308 -0.0511 -0.5229 0.1618 -0.0203 -0.1361 -0.1643 0.0824 0.4631 0.2190 -0.0128 -0.0090 -0.2142 0.1690 0.3593 0.3660 0.5344 0.1406 0.0552 -0.0505 -0.1600 -0.0888 -0.3187 -0.2314 -0.2264 0.2466 0.2980 0.0605 0.0203 -0.5320 0.0523 0.0627 0.0456 -0.3733 0.2387 0.2084 0.3214 0.4063 0.3011 -0.3151 -0.1233 -0.0896 -0.2742 -0.3029 -0.2251 -0.4606 0.2007 0.1457 -0.5036 -0.0687 -0.0498 -0.4510 -0.3086 0.2292 0.0124 -0.1589 0.2026 0.0242 -0.2896 -0.0893 0.2828 0.1856 0.2491 0.2611 -0.4341 -0.2780 -0.0853 -0.3643 -0.2648 -0.1649 -0.1086 0.1496 0.0971 0.1085 0.0824 -0.5912 -0.5267 0.1090 0.2217 0.3331 0.1238 0.3812 0.4933 -0.2141 0.0258 0.4251 0.3090 -0.2200 -0.1451 -0.1116 -0.5737 0.3708 0.0506 0.0931 -0.1217 -0.0763 0.1079 -0.4745 -0.1613 0.0471 0.0231 0.0168 -0.5244 0.0405 -0.1608 -0.0955 -0.3719 -0.2708 -0.3448 -0.1100 -0.5420 0.0953 -0.3642 0.2513 -0.0650 -0.2170 -0.1574 -0.5167 -0.4172 -0.2998 -0.3176 -0.4107 -0.0287 0.3558 0.3519 0.2003 0.0119 0.5125 -0.1034 0.2059 0.1485 0.1079 -0.3637 -0.3270 -0.0896 0.0851 0.0463 -0.2760 0.0026 -0.1861 0.0452 -0.3391 0.5500 -0.1456 0.1299 -0.5764 -0.0151 0.0850 0.3546 -0.1693 -0.0019 0.3379 0.2441 -0.4101 -0.3005 -0.4332 0.0510 0.4545 -0.0493 0.2430 0.5538 -0.1612 0.0924 0.0393 0.1134 0.0119 -0.0916 -0.4107 0.1801 -0.0216 -0.0208 -0.5998 -0.1650 -0.3275 0.0924 0.3249 0.2362 -0.3256 0.2499 -0.0482 0.0155 -0.0322 -0.5060 0.0903 -0.2407 0.1837 -0.0704 -0.0915 -0.0590 -0.5919 -0.0302 -0.1536 0.1575 0.1562 0.1133 -0.5239 0.0111 -0.4544 0.0729 -0.1707 -0.0385 0.0536 -0.3290 -0.2403 -0.4195 0.4900 -0.0582 0.1008 -0.1841 -0.3564 0.4060 0.4420 0.3391 -0.1792 -0.2717 -0.1909 -0.4965 -0.2975 -0.1442 -0.2077 -0.3821 0.0379 0.1027 -0.5037 0.0760 0.2897 0.3652 -0.0144 0.1331 -0.2410 -0.1750 -0.1159 0.1091 0.3020 0.1162 0.0296 0.5776 0.0988 -0.2632 -0.1309 0.1364 -0.1734 -0.1261 -0.5261 -0.2233 -0.3081 0.4366 -0.4439 -0.3680 -0.1407 -0.3227 -0.1729 0.4535 -0.2225 0.2023 -0.2315 0.1096 0.4427 0.2987 0.1763 0.0446 -0.0613 -0.3153 -0.0676 0.2406 0.4767 -0.0372 0.3290 -0.5183 -0.2638 -0.0478 0.2305 -0.1260 -0.2926 0.1678 0.3611 0.2736 0.1977 0.1436 -0.0644 -0.4192 -0.3961 -0.0677 -0.1304 -0.0947 -0.4408 0.2098 0.0042 0.0575 0.1376 0.3802 0.3000 0.4312 0.3151 -0.2777 -0.3139 -0.1445 0.3782 -0.1496 -0.1086 -0.1420 -0.4767 0.0392 0.3353 0.3205 0.2274 -0.4508 -0.0160 0.5687 0.0609 -0.4344 -0.3102 -0.2655 -0.5087 0.1960 0.0461 0.0060 -0.4102 0.0392 -0.5479 -0.2356 -0.0122 0.3757 0.2729 -0.1545 0.2707 0.3175 0.2126 0.2576 0.1907 -0.5079 -0.2547 0.1267 -0.3486 -0.2297 0.1867 -0.3251 -0.3760 -0.4575 0.0058 0.5456 -0.1330 0.1709 0.3730 0.3884 -0.0144 0.3231 0.1743 0.4477 -0.3618 -0.2673 -0.3966 0.0642 -0.1081 0.2841 -0.1673 -0.5751 0.0839 -0.4054 -0.4399 -0.0283 -0.2574 -0.1244 0.2359 -0.1685 0.0345 -0.4796 0.2229 0.1619 -0.2263 -0.1088 0.1011 0.1558 -0.1013 -0.4087 0.1039 0.4569 -0.0094 0.3741 -0.5874 -0.0587 0.0720 -0.0591 -0.0405 -0.6023 0.2681 0.1417 0.2809 -0.1847 0.3140 -0.1919 -0.3904 -0.3151 -0.0822 0.1620 0.5610 0.0867 
</DataArray>
    </Points>
    <PointData>
<DataArray type="Float32" Name="Position" NumberOfComponents="3" format="ascii">
-0.0588 0.1444 -0.1720 0.0895 0.1505 0.0537 -0.2773 0.2191 0.1245 -0.2270 -0.1649 -0.2767 0.4682 -0.0368 0.1718 -0.1167 -0.0053 -0.0710 0.2777 0.2018 -0.1827 0.3394 0.2529 -0.0509 -0.0762 0.2667 -0.0646 0.3364 0.2768 0.0489 0.1359 0.1662 -0.2824 0.0199 0.1086 -0.1183 0.0484 -0.0034 -0.0139 0.0780 0.0567 -0.1159 0.2481 0.1803 -0.4246 -0.2326 0.1089 0.2072 -0.0848 -0.2071 0.0659 0.0025 -0.2257 -0.4456 -0.1510 -0.1935 0.1316 -0.0821 0.4711 -0.0126 -0.0353 -0.1312 -0.4587 -0.1332 -0.2186 -0.0813 -0.1979 -0.1437 -0.3847 -0.3222 -0.0267 0.1510 0.4060 -0.0804 0.0843 0.0437 0.5473 0.1934 0.2966 0.0669 0.2059 -0.4814 0.1096 0.0974 -0.0181 0.0088 0.0959 -0.1997 0.2389 -0.1187 -0.1042 -0.1460 -0.2585 0.2277 0.3755 0.1645 -0.2387 -0.1919 0.2978 0.1703 0.0915 0.0713 -0.1361 -0.4009 0.3265 -0.2061 -0.1507 0.0402 0.0678 0.3949 0.0963 -0.2522 0.0218 0.1044 0.1994 0.4389 0.0848 0.0063 -0.2906 -0.1926 -0.4022 0.1783 0.0133 0.0752 -0.4449 -0.0121 -0.1161 -0.3857 0.2399 -0.3717 0.1864 0.0716 0.2291 0.1665 -0.3243 -0.3136 0.0729 -0.0090 0.0606 0.0390 -0.5986 -0.1995 -0.0181 0.1850 -0.3776 0.0097 0.0717 -0.0179 0.4155 0.0308 -0.0511 -0.5229 0.1618 -0.0203 -0.1361 -0.1643 0.0824 0.4631 0.2190 -0.0128 -0.0090 -0.2142 0.1690 0.3593 0.3660 0.5344 0.1406 0.0552 -0.0505 -0.1600 -0.0888 -0.3187 -0.2314 -0.2264 0.2466 0.2980 0.0605 0.0203 -0.5320 0.0523 0.0627 0.0456 -0.3733 0.2387 0.2084 0.3214 0.4063 0.3011 -0.3151 -0.1233 -0.0896 -0.2742 -0.3029 -0.2251 -0.4606 0.2007 0.1457 -0.5036 -0.0687 -0.0498 -0.4510 -0.3086 0.2292 0.0124 -0.1589 0.2026 0.0242 -0.2896 -0.0893 0.2828 0.1856 0.2491 0.2611 -0.4341 -0.2780 -0.0853 -0.3643 -0.2648 -0.1649 -0.1086 0.1496 0.0971 0.1085 0.0824 -0.5912 -0.5267 0.1090 0.2217 0.3331 0.1238 0.3812 0.4933 -0.2141 0.0258 0.4251 0.3090 -0.2200 -0.1451 -0.1116 -0.5737 0.3708 0.0506 0.0931 -0.1217 -0.0763 0.1079 -0.4745 -0.1613 0.0471 0.0231 0.0168 -0.5244 0.0405 -0.1608 -0.0955 -0.3719 -0.2708 -0.3448 -0.1100 -0.5420 0.0953 -0.3642 0.2513 -0.0650 -0.2170 -0.1574 -0.5167 -0.4172 -0.2998 -0.3176 -0.4107 -0.0287 0.3558 0.3519 0.2003 0.0119 0.5125 -0.1034 0.2059 0.1485 0.1079 -0.3637 -0.3270 -0.0896 0.0851 0.0463 -0.2760 0.0026 -0.1861 0.0452 -0.3391 0.5500 -0.1456 0.1299 -0.5764 -0.0151 0.0850 0.3546 -0.1693 -0.0019 0.3379 0.2441 -0.4101 -0.3005 -0.4332 0.0510 0.4545 -0.0493 0.2430 0.5538 -0.1612 0.0924 0.0393 0.1134 0.0119 -0.0916 -0.4107 0.1801 -0.0216 -0.0208 -0.5998 -0.1650 -0.3275 0.0924 0.3249 0.2362 -0.3256 0.2499 -0.0482 0.0155 -0.0322 -0.5060 0.0903 -0.2407 0.1837 -0.0704 -0.0915 -0.0590 -0.5919 -0.0302 -0.1536 0.1575 0.1562 0.1133 -0.5239 0.0111 -0.4544 0.0729 -0.1707 -0.0385 0.0536 -0.3290 -0.2403 -0.4195 0.4900 -0.0582 0.1008 -0.1841 -0.3564 0.4060 0.4420 0.3391 -0.1792 -0.2717 -0.1909 -0.4965 -0.2975 -0.1442 -0.2077 -0.3821 0.0379 0.1027 -0.5037 0.0760 0.2897 0.3652 -0.0144 0.1331 -0.2410 -0.1750 -0.1159 0.1091 0.3020 0.1162 0.0296 0.5776 0.0988 -0.2632 -0.1309 0.1364 -0.1734 -0.1261 -0.5261 -0.2233 -0.3081 0.4366 -0.4439 -0.3680 -0.1407 -0.3227 -0.1729 0.4535 -0.2225 0.2023 -0.2315 0.1096 0.4427 0.2987 0.1763 0.0446 -0.0613 -0.3153 -0.0676 0.2406 0.4767 -0.0372 0.3290 -0.5183 -0.2638 -0.0478 0.2305 -0.1260 -0.2926 0.1678 0.3611 0.2736 0.1977 0.1436 -0.0644 -0.4192 -0.3961 -0.0677 -0.1304 -0.0947 -0.4408 0.2098 0.0042 0.0575 0.1376 0.3802 0.3000 0.4312 0.3151 -0.2777 -0.3139 -0.1445 0.3782 -0.1496 -0.1086 -0.1420 -0.4767 0.0392 0.3353 0.3205 0.2274 -0.4508 -0.0160 0.5687 0.0609 -0.4344 -0.3102 -0.2655 -0.5087 0.1960 0.0461 0.0060 -0.4102 0.0392 -0.5479 -0.2356 -0.0122 0.3757 0.2729 -0.1545 0.2707 0.3175 0.2126 0.2576 0.1907 -0.5079 -0.2547 0.1267 -0.3486 -0.2297 0.1867 -0.3251 -0.3760 -0.4575 0.0058 0.5456 -0.1330 0.1709 0.3730 0.3884 -0.0144 0.3231 0.1743 0.4477 -0.3618 -0.2673 -0.3966 0.0642 -0.1081 0.2841 -0.1673 -0.5751 0.0839 -0.4054 -0.4399 -0.0283 -0.2574 -0.1244 0.2359 -0.1685 0.0345 -0.4796 0.2229 0.1619 -0.2263 -0.1088 0.1011 0.1558 -0.1013 -0.4087 0.1039 0.4569 -0.0094 0.3741 -0.5874 -0.0587 0.0720 -0.0591 -0.0405 -0.6023 0.2681 0.1417 0.2809 -0.1847 0.3140 -0.1919 -0.3904 -0.3151 -0.0822 0.1620 0.5610 0.0867 
</DataArray>
<DataArray type="Float32" Name="Velocity" NumberOfComponents="3" format="ascii">
0.0000 0.0000 0.0000 0.0000 0.0000 0.0000 0.0000 0.0000 0.0000 0.0000 0.0000 0.0000 0.0000 0.0000 0.0000 0.0000 0.0000 0.0000 0.0000 0.0000 0.0000 0.0000 0.0000 0.0000 0.0000 0.0000 0.0000 0.0000 0.0000 0.0000 0.0000 0.0000 0.0000 0.0000 0.0000 0.0000 0.0000 0.0000 0.0000 0.0000 0.0000 0.0000 0.0000 0.0000 0.0000 0.0000 0.0000 0.0000 0.0000 0.0000 0.0000 0.0000 0.0000 0.0000 0.0000 0.0000 0.0000 0.0000 0.0000 0.0000 0.0000 0.0000 0.0000 0.0000 0.0000 0.0000 0.0000 0.0000 0.0000 0.0000 0.0000 0.0000 0.0000 0.0000 0.0000 0.0000 0.0000 0.0000 0.0000 0.0000 0.0000 0.0000 0.0000 0.0000 0.0000 0.0000 0.0000 0.0000 0.0000 0.0000 0.0000 0.0000 0.0000 0.0000 0.0000 0.0000 0.0000 0.0000 0.0000 0.0000 0.0000 0.0000 0.0000 0.0000 0.0000 0.0000 0.0000 0.0000 0.0000 0.0000 0.0000 0.0000 0.0000 0.0000 0.0000 0.0000 0.0000 0.0000 0.0000 0.0000 0.0000 0.0000 0.0000 0.0000 0.0000 0.0000 0.0000 0.0000 0.0000 0.0000 0.0000 0.0000 0.0000 0.0000 0.0000 0.0000 0.0000 0.0000 0.0000 0.0000 0.0000 0.0000 0.0000 0.0000 0.0000 0.0000 0.0000 0.0000 0.0000 0.0000 0.0000 0.0000 0.0000 0.0000 0.0000 0.0000 0.0000 0.0000 0.0000 0.0000 0.0000 0.0000 0.0000 0.0000 0.0000 0.0000 0.0000 0.0000 0.0000 0.0000 0.0000 0.0000 0.0000 0.0000 0.0000 0.0000 0.0000 0.0000 0.0000 0.0000 0.0000 0.0000 0.0000 0.0000 0.0000 0.0000 0.0000 0.0000 0.0000 0.0000 0.0000 0.0000 0.0000 0.0000 0.0000 0.0000 0.0000 0.0000 0.0000 0.0000 0.0000 0.0000 0.0000 0.0000 0.0000 0.0000 0.0000 0.0000 0.0000 0.0000 0.0000 0.0000 0.0000 0.0000 0.0000 0.0000 0.0000 0.0000 0.0000 0.0000 0.0000 0.0000 0.0000 0.0000 0.0000 0.0000 0.0000 0.0000 0.0000 0.0000 0.0000 0.0000 0.0000 0.0000 0.0000 0.0000 0.0000 0.0000 0.0000 0.0000 0.0000 0.0000 0.0000 0.0000 0.0000 0.0000 0.0000 0.0000 0.0000 0.0000 0.0000 0.0000 0.0000 0.0000 0.0000 0.0000 0.0000 0.0000 0.0000 0.0000 0.0000 0.0000 0.0000 0.0000 0.0000 0.0000 0.0000 0.0000 0.0000 0.0000 0.0000 0.0000 0.0000 0.0000 0.0000 0.0000 0.0000 0.0000 0.0000 0.0000 0.0000 0.0000 0.0000 0.0000 0.0000 0.0000 0.0000 0.0000 0.0000 0.0000 0.0000 0.0000 0.0000 0.0000 0.0000 0.0000 0.0000 0.0000 0.0000 0.0000 0.0000 0.0000 0.0000 0.0000 0.0000 0.0000 0.0000 0.0000 0.0000 0.0000 0.0000 0.0000 0.0000 0.0000 0.0000 0.0000 0.0000 0.0000 0.0000 0.0000 0.0000 0.0000 0.0000 0.0000 0.0000 0.0000 0.0000 0.0000 0.0000 0.0000 0.0000 0.0000 0.0000 0.0000 0.0000 0.0000 0.0000 0.0000 0.0000 0.0000 0.0000 0.0000 0.0000 0.0000 0.0000 0.0000 0.0000 0.0000 0.0000 0.0000 0.0000 0.0000 0.0000 0.0000 0.0000 0.0000 0.0000 0.0000 0.0000 0.0000 0.0000 0.0000 0.0000 0.0000 0.0000 0.0000 0.0000 0.0000 0.0000 0.0000 0.0000 0.0000 0.0000 0.0000 0.0000 0.0000 0.0000 0.0000 0.0000 0.0000 0.0000 0.0000 0.0000 0.0000 0.0000 0.0000 0.0000 0.0000 0.0000 0.0000 0.0000 0.0000 0.0000 0.0000 0.0000 0.0000 0.0000 0.0000 0.0000 0.0000 0.0000 0.0000 0.0000 0.0000 0.0000 0.0000 0.0000 0.0000 0.0000 0.0000 0.0000 0.0000 0.0000 0.0000 0.0000 0.0000 0.0000 0.0000 0.0000 0.0000 0.0000 0.0000 0.0000 0.0000 0.0000 0.0000 0.0000 0.0000 0.0000 0.0000 0.0000 0.0000 0.0000 0.0000 0.0000 0.0000 0.0000 0.0000 0.0000 0.0000 0.0000 0.0000 0.0000 0.0000 0.0000 0.0000 0.0000 0.0000 0.0000 0.0000 0.0000 0.0000 0.0000 0.0000 0.0000 0.0000 0.0000 0.0000 0.0000 0.0000 0.0000 0.0000 0.0000 0.0000 0.0000 0.0000 0.0000 0.0000 0.0000 0.0000 0.0000 0.0000 0.0000 0.0000 0.0000 0.0000 0.0000 0.0000 0.0000 0.0000 0.0000 0.0000 0.0000 0.0000 0.0000 0.0000 0.0000 0.0000 0.0000 0.0000 0.0000 0.0000 0.0000 0.0000 0.0000 0.0000 0.0000 0.0000 0.0000 0.0000 0.0000 0.0000 0.0000 0.0000 0.0000 0.0000 0.0000 0.0000 0.0000 0.0000 0.0000 0.0000 0.0000 0.0000 0.0000 0.0000 0.0000 0.0000 0.0000 0.0000 0.0000 0.0000 0.0000 0.0000 0.0000 0.0000 0.0000 0.0000 0.0000 0.0000 0.0000 0.0000 0.0000 0.0000 0.0000 0.0000 0.0000 0.0000 0.0000 0.0000 0.0000 0.0000 0.0000 0.0000 0.0000 0.0000 
</DataArray>
<DataArray type="Float32" Name="Radius" NumberOfComponents="1" format="ascii">
0.2836 0.4013 0.1318 0.2016 0.1180 0.3971 0.2083 0.1983 0.2316 0.1830 0.2083 0.3713 0.4684 0.4068 0.0904 0.1829 0.3563 0.0426 0.3370 0.0706 0.0906 0.2770 0.1479 0.2597 0.1799 0.0357 0.2470 0.1111 0.3861 0.1728 0.2415 0.1488 0.1852 0.4082 0.0789 0.3617 0.1983 0.2946 0.1310 0.1777 0.1186 0.0958 0.1461 0.1204 0.1697 0.2266 0.0285 0.2738 0.2145 0.1500 0.0684 0.3210 0.0978 0.3387 0.0725 0.0663 0.3437 0.1516 0.2290 0.0523 0.2101 0.1609 0.0319 0.2682 0.0319 0.0594 0.1467 0.1322 0.2393 0.1851 0.2074 0.1030 0.1359 0.2829 0.0245 0.0362 0.0912 0.0360 0.0578 0.0281 0.2335 0.3751 0.1181 0.0882 0.3214 0.0469 0.0591 0.0801 0.0418 0.0249 0.0686 0.2172 0.0552 0.1891 0.2694 0.2488 0.1514 0.0359 0.0394 0.1545 0.0395 0.0915 0.0982 0.0338 0.4255 0.1590 0.0297 0.2410 0.0967 0.2990 0.0949 0.2044 0.0293 0.2959 0.0623 0.1153 0.4013 0.0394 0.1161 0.0410 0.0430 0.0311 0.1806 0.2180 0.0308 0.2285 0.2693 0.2762 0.0354 0.2923 0.0539 0.0326 0.0331 0.0287 0.1362 0.0691 0.3517 0.2116 0.0355 0.0407 0.1352 0.1315 0.3295 0.0442 0.1371 0.3589 0.1107 0.0280 0.0997 0.3400 0.0311 0.0302 0.0244 0.0339 0.0381 0.1598 0.0273 0.1295 0.1480 0.0285 0.0812 0.0806 0.0313 0.0323 0.0845 0.0343 0.0294 0.1745 0.0162 0.0255 0.2424 0.0492 0.2341 0.2743 0.1852 0.0231 0.0286 0.0249 0.1995 0.0970 0.1169 0.0313 
</DataArray>
</PointData>
<CellData/>
</Piece>
</UnstructuredGrid>
</VTKFile>
