<?xml version="1.0"?>
<VTKFile type="UnstructuredGrid" version="0.1" byte_order="LittleEndian">
 <UnstructuredGrid>
  <Piece NumberOfPoints="182" NumberOfCells="0">
   <Cells>
    <DataArray type="Int32" name="connectivity" format="ascii">
       0
    </DataArray>
    <DataArray type="Float32" name="offset" format="ascii">
       0
    </DataArray>
    <DataArray type="UInt8" name="types" format="ascii">
       1
    </DataArray>
   </Cells>
   <Points>
<DataArray type="Float32" NumberOfComponents="3" format="ascii">
0.1487 -0.0467 -0.1720 0.0589 -0.1649 0.0537 0.3455 0.0740 0.1245 0.0177 0.2800 -0.2767 -0.3268 -0.3373 0.1718 0.0703 0.0932 -0.0710 -0.0215 -0.3426 -0.1827 -0.0214 -0.4227 -0.0509 0.2541 -0.1112 -0.0646 -0.0011 -0.4357 0.0489 0.0414 -0.2106 -0.2824 0.0710 -0.0845 -0.1183 -0.0335 -0.0351 -0.0139 -0.0060 -0.0963 -0.1159 -0.0192 -0.3061 -0.4246 0.2322 0.1099 0.2072 -0.1055 0.1974 0.0659 -0.1755 0.1420 -0.4456 -0.0528 0.2397 0.1316 0.4153 -0.2370 -0.0126 -0.0786 0.1109 -0.4587 -0.0835 0.2420 -0.0813 0.0154 0.2441 -0.3847 0.1848 0.2653 0.1510 -0.3207 -0.2616 0.0843 0.3938 -0.3826 0.1934 -0.1375 -0.2712 0.2059 0.3913 0.3011 0.0974 0.0183 0.0083 0.0959 0.3114 0.0016 -0.1187 -0.0461 0.1733 -0.2585 0.1442 -0.4148 0.1645 0.0043 0.3063 0.2978 -0.0381 -0.1896 0.0713 -0.2222 0.3604 0.3265 0.0152 0.2549 0.0402 0.2611 -0.3040 0.0963 0.1776 0.1804 0.1044 0.2111 -0.4334 0.0848 -0.2280 0.1804 -0.1926 0.3938 0.1962 0.0133 -0.3907 0.2257 -0.0121 -0.2231 0.3353 0.2399 0.3805 0.1676 0.0716 -0.0178 -0.2826 -0.3243 0.2561 0.1951 -0.0090 -0.0086 -0.0716 -0.5986 0.1132 0.1653 0.1850 0.2482 0.2848 0.0717 0.3316 -0.2510 0.0308 -0.3703 0.3727 0.1618 -0.0919 0.1024 -0.1643 0.3043 -0.3587 0.2190 0.0012 0.0156 -0.2142 0.1692 -0.3593 0.3660 -0.2323 -0.5014 0.0552 -0.0910 0.1409 -0.0888 0.0249 0.3931 -0.2264 0.0724 -0.3800 0.0605 -0.4228 0.3235 0.0523 -0.0048 -0.0774 -0.3733 0.0084 -0.3168 0.3214 -0.0270 -0.5050 -0.3151 0.0096 0.1521 -0.2742 0.0196 0.3769 -0.4606 -0.0157 -0.2475 -0.5036 0.0054 0.0846 -0.4510 0.3734 0.0917 0.0124 0.2574 -0.0067 0.0242 0.1158 0.2801 0.2828 0.0736 -0.3019 0.2611 0.0625 0.5117 -0.0853 0.0282 0.4495 -0.1649 0.1845 -0.0117 0.0971 -0.0056 -0.1361 -0.5912 0.4197 0.3364 0.2217 -0.1169 -0.3356 0.3812 -0.4794 -0.2436 0.0258 -0.0329 -0.5245 -0.2200 0.0065 0.1830 -0.5737 -0.1974 -0.3180 0.0931 0.0188 0.1425 0.1079 0.1782 0.4685 0.0471 -0.0018 -0.0285 -0.5244 -0.1497 0.0713 -0.0955 0.0284 0.4592 -0.3448 -0.3475 0.4302 0.0953 0.4257 0.1204 -0.0650 0.0171 0.2676 -0.5167 0.0350 0.5125 -0.3176 0.2397 0.3348 0.3558 -0.0700 -0.3988 0.0119 -0.4063 -0.3290 0.2059 -0.0115 -0.1832 -0.3637 0.1395 0.3091 0.0851 -0.2422 0.1402 0.0026 0.1535 0.1146 -0.3391 -0.4627 -0.3310 0.1299 0.3557 0.4538 0.0850 -0.3565 -0.1653 -0.0019 -0.0273 -0.4159 -0.4101 -0.1422 0.5077 0.0510 -0.3277 -0.3188 0.2430 -0.4772 -0.3240 0.0924 0.0623 -0.1026 0.0119 -0.2581 0.3323 0.1801 -0.0022 0.0299 -0.5998 -0.1472 0.3359 0.0924 -0.0251 -0.4009 -0.3256 -0.1964 -0.1619 0.0155 -0.3693 0.3474 0.0903 0.2950 0.0683 -0.0704 0.0128 0.1081 -0.5919 -0.0991 0.1211 0.1575 -0.0123 -0.1926 -0.5239 -0.3572 0.2811 0.0729 0.0791 0.1561 0.0536 0.0245 0.4066 -0.4195 -0.3572 -0.3405 0.1008 -0.1573 0.3690 0.4060 -0.0205 -0.5567 -0.1792 0.0261 0.3310 -0.4965 0.0785 0.3211 -0.2077 0.2728 0.2702 0.1027 0.3796 0.3397 0.2897 -0.2439 -0.2722 0.1331 0.0188 0.2972 -0.1159 0.1632 -0.2766 0.1162 0.4261 -0.3910 0.0988 0.0669 0.2863 0.1364 0.0134 0.2140 -0.5261 -0.0951 0.3685 0.4366 -0.0005 0.5766 -0.1407 0.0725 0.3588 0.4535 0.2977 0.0425 -0.2315 0.2712 -0.3666 0.2987 -0.0780 -0.1643 -0.0613 0.1489 0.2860 0.2406 -0.3325 -0.3436 0.3290 0.1271 0.5675 -0.0478 -0.2440 -0.0973 -0.2926 0.1713 -0.3595 0.2736 -0.0153 -0.2438 -0.0644 -0.0380 0.5755 -0.0677 0.0102 0.1608 -0.4408 -0.1305 -0.1643 0.0575 0.2052 -0.3484 0.3000 -0.0321 -0.5331 -0.2777 0.0888 0.3340 0.3782 0.0116 0.1845 -0.1420 0.3341 0.3424 0.3353 -0.0291 -0.3919 -0.4508 0.4483 -0.3502 0.0609 0.0379 0.5324 -0.2655 0.4753 0.2670 0.0461 -0.3199 0.2569 0.0392 0.1678 0.5723 -0.0122 -0.0292 -0.4634 -0.1545 0.0721 -0.4110 0.2126 -0.0172 -0.3200 -0.5079 0.2599 0.1155 -0.3486 0.2903 0.0579 -0.3251 -0.1129 0.5813 0.0058 -0.4502 -0.3356 0.1709 0.0615 -0.5350 -0.0144 -0.0716 -0.3601 0.4477 0.0247 0.4491 -0.3966 -0.1242 0.0194 0.2841 -0.3365 0.4955 0.0839 -0.0805 0.5928 -0.0283 0.0682 0.2776 0.2359 0.1340 0.1078 -0.4796 -0.0173 -0.2750 -0.2263 0.1472 0.0194 0.1558 -0.2503 0.3386 0.1039 -0.2985 -0.3460 0.3741 0.3292 0.4900 0.0720 0.0064 0.0713 -0.6023 -0.0617 -0.2969 0.2809 0.3597 -0.0578 -0.1919 0.0060 0.5017 -0.0822 0.3290 -0.4824 0.0867 
</DataArray>
    </Points>
    <PointData>
<DataArray type="Float32" Name="Position" NumberOfComponents="3" format="ascii">
0.1487 -0.0467 -0.1720 0.0589 -0.1649 0.0537 0.3455 0.0740 0.1245 0.0177 0.2800 -0.2767 -0.3268 -0.3373 0.1718 0.0703 0.0932 -0.0710 -0.0215 -0.3426 -0.1827 -0.0214 -0.4227 -0.0509 0.2541 -0.1112 -0.0646 -0.0011 -0.4357 0.0489 0.0414 -0.2106 -0.2824 0.0710 -0.0845 -0.1183 -0.0335 -0.0351 -0.0139 -0.0060 -0.0963 -0.1159 -0.0192 -0.3061 -0.4246 0.2322 0.1099 0.2072 -0.1055 0.1974 0.0659 -0.1755 0.1420 -0.4456 -0.0528 0.2397 0.1316 0.4153 -0.2370 -0.0126 -0.0786 0.1109 -0.4587 -0.0835 0.2420 -0.0813 0.0154 0.2441 -0.3847 0.1848 0.2653 0.1510 -0.3207 -0.2616 0.0843 0.3938 -0.3826 0.1934 -0.1375 -0.2712 0.2059 0.3913 0.3011 0.0974 0.0183 0.0083 0.0959 0.3114 0.0016 -0.1187 -0.0461 0.1733 -0.2585 0.1442 -0.4148 0.1645 0.0043 0.3063 0.2978 -0.0381 -0.1896 0.0713 -0.2222 0.3604 0.3265 0.0152 0.2549 0.0402 0.2611 -0.3040 0.0963 0.1776 0.1804 0.1044 0.2111 -0.4334 0.0848 -0.2280 0.1804 -0.1926 0.3938 0.1962 0.0133 -0.3907 0.2257 -0.0121 -0.2231 0.3353 0.2399 0.3805 0.1676 0.0716 -0.0178 -0.2826 -0.3243 0.2561 0.1951 -0.0090 -0.0086 -0.0716 -0.5986 0.1132 0.1653 0.1850 0.2482 0.2848 0.0717 0.3316 -0.2510 0.0308 -0.3703 0.3727 0.1618 -0.0919 0.1024 -0.1643 0.3043 -0.3587 0.2190 0.0012 0.0156 -0.2142 0.1692 -0.3593 0.3660 -0.2323 -0.5014 0.0552 -0.0910 0.1409 -0.0888 0.0249 0.3931 -0.2264 0.0724 -0.3800 0.0605 -0.4228 0.3235 0.0523 -0.0048 -0.0774 -0.3733 0.0084 -0.3168 0.3214 -0.0270 -0.5050 -0.3151 0.0096 0.1521 -0.2742 0.0196 0.3769 -0.4606 -0.0157 -0.2475 -0.5036 0.0054 0.0846 -0.4510 0.3734 0.0917 0.0124 0.2574 -0.0067 0.0242 0.1158 0.2801 0.2828 0.0736 -0.3019 0.2611 0.0625 0.5117 -0.0853 0.0282 0.4495 -0.1649 0.1845 -0.0117 0.0971 -0.0056 -0.1361 -0.5912 0.4197 0.3364 0.2217 -0.1169 -0.3356 0.3812 -0.4794 -0.2436 0.0258 -0.0329 -0.5245 -0.2200 0.0065 0.1830 -0.5737 -0.1974 -0.3180 0.0931 0.0188 0.1425 0.1079 0.1782 0.4685 0.0471 -0.0018 -0.0285 -0.5244 -0.1497 0.0713 -0.0955 0.0284 0.4592 -0.3448 -0.3475 0.4302 0.0953 0.4257 0.1204 -0.0650 0.0171 0.2676 -0.5167 0.0350 0.5125 -0.3176 0.2397 0.3348 0.3558 -0.0700 -0.3988 0.0119 -0.4063 -0.3290 0.2059 -0.0115 -0.1832 -0.3637 0.1395 0.3091 0.0851 -0.2422 0.1402 0.0026 0.1535 0.1146 -0.3391 -0.4627 -0.3310 0.1299 0.3557 0.4538 0.0850 -0.3565 -0.1653 -0.0019 -0.0273 -0.4159 -0.4101 -0.1422 0.5077 0.0510 -0.3277 -0.3188 0.2430 -0.4772 -0.3240 0.0924 0.0623 -0.1026 0.0119 -0.2581 0.3323 0.1801 -0.0022 0.0299 -0.5998 -0.1472 0.3359 0.0924 -0.0251 -0.4009 -0.3256 -0.1964 -0.1619 0.0155 -0.3693 0.3474 0.0903 0.2950 0.0683 -0.0704 0.0128 0.1081 -0.5919 -0.0991 0.1211 0.1575 -0.0123 -0.1926 -0.5239 -0.3572 0.2811 0.0729 0.0791 0.1561 0.0536 0.0245 0.4066 -0.4195 -0.3572 -0.3405 0.1008 -0.1573 0.3690 0.4060 -0.0205 -0.5567 -0.1792 0.0261 0.3310 -0.4965 0.0785 0.3211 -0.2077 0.2728 0.2702 0.1027 0.3796 0.3397 0.2897 -0.2439 -0.2722 0.1331 0.0188 0.2972 -0.1159 0.1632 -0.2766 0.1162 0.4261 -0.3910 0.0988 0.0669 0.2863 0.1364 0.0134 0.2140 -0.5261 -0.0951 0.3685 0.4366 -0.0005 0.5766 -0.1407 0.0725 0.3588 0.4535 0.2977 0.0425 -0.2315 0.2712 -0.3666 0.2987 -0.0780 -0.1643 -0.0613 0.1489 0.2860 0.2406 -0.3325 -0.3436 0.3290 0.1271 0.5675 -0.0478 -0.2440 -0.0973 -0.2926 0.1713 -0.3595 0.2736 -0.0153 -0.2438 -0.0644 -0.0380 0.5755 -0.0677 0.0102 0.1608 -0.4408 -0.1305 -0.1643 0.0575 0.2052 -0.3484 0.3000 -0.0321 -0.5331 -0.2777 0.0888 0.3340 0.3782 0.0116 0.1845 -0.1420 0.3341 0.3424 0.3353 -0.0291 -0.3919 -0.4508 0.4483 -0.3502 0.0609 0.0379 0.5324 -0.2655 0.4753 0.2670 0.0461 -0.3199 0.2569 0.0392 0.1678 0.5723 -0.0122 -0.0292 -0.4634 -0.1545 0.0721 -0.4110 0.2126 -0.0172 -0.3200 -0.5079 0.2599 0.1155 -0.3486 0.2903 0.0579 -0.3251 -0.1129 0.5813 0.0058 -0.4502 -0.3356 0.1709 0.0615 -0.5350 -0.0144 -0.0716 -0.3601 0.4477 0.0247 0.4491 -0.3966 -0.1242 0.0194 0.2841 -0.3365 0.4955 0.0839 -0.0805 0.5928 -0.0283 0.0682 0.2776 0.2359 0.1340 0.1078 -0.4796 -0.0173 -0.2750 -0.2263 0.1472 0.0194 0.1558 -0.2503 0.3386 0.1039 -0.2985 -0.3460 0.3741 0.3292 0.4900 0.0720 0.0064 0.0713 -0.6023 -0.0617 -0.2969 0.2809 0.3597 -0.0578 -0.1919 0.0060 0.5017 -0.0822 0.3290 -0.4824 0.0867 
</DataArray>
<DataArray type="Float32" Name="Velocity" NumberOfComponents="3" format="ascii">
0.0000 0.0000 0.0000 0.0000 0.0000 0.0000 0.0000 0.0000 0.0000 0.0000 0.0000 0.0000 0.0000 0.0000 0.0000 0.0000 0.0000 0.0000 0.0000 0.0000 0.0000 0.0000 0.0000 0.0000 0.0000 0.0000 0.0000 0.0000 0.0000 0.0000 0.0000 0.0000 0.0000 0.0000 0.0000 0.0000 0.0000 0.0000 0.0000 0.0000 0.0000 0.0000 0.0000 0.0000 0.0000 0.0000 0.0000 0.0000 0.0000 0.0000 0.0000 0.0000 0.0000 0.0000 0.0000 0.0000 0.0000 0.0000 0.0000 0.0000 0.0000 0.0000 0.0000 0.0000 0.0000 0.0000 0.0000 0.0000 0.0000 0.0000 0.0000 0.0000 0.0000 0.0000 0.0000 0.0000 0.0000 0.0000 0.0000 0.0000 0.0000 0.0000 0.0000 0.0000 0.0000 0.0000 0.0000 0.0000 0.0000 0.0000 0.0000 0.0000 0.0000 0.0000 0.0000 0.0000 0.0000 0.0000 0.0000 0.0000 0.0000 0.0000 0.0000 0.0000 0.0000 0.0000 0.0000 0.0000 0.0000 0.0000 0.0000 0.0000 0.0000 0.0000 0.0000 0.0000 0.0000 0.0000 0.0000 0.0000 0.0000 0.0000 0.0000 0.0000 0.0000 0.0000 0.0000 0.0000 0.0000 0.0000 0.0000 0.0000 0.0000 0.0000 0.0000 0.0000 0.0000 0.0000 0.0000 0.0000 0.0000 0.0000 0.0000 0.0000 0.0000 0.0000 0.0000 0.0000 0.0000 0.0000 0.0000 0.0000 0.0000 0.0000 0.0000 0.0000 0.0000 0.0000 0.0000 0.0000 0.0000 0.0000 0.0000 0.0000 0.0000 0.0000 0.0000 0.0000 0.0000 0.0000 0.0000 0.0000 0.0000 0.0000 0.0000 0.0000 0.0000 0.0000 0.0000 0.0000 0.0000 0.0000 0.0000 0.0000 0.0000 0.0000 0.0000 0.0000 0.0000 0.0000 0.0000 0.0000 0.0000 0.0000 0.0000 0.0000 0.0000 0.0000 0.0000 0.0000 0.0000 0.0000 0.0000 0.0000 0.0000 0.0000 0.0000 0.0000 0.0000 0.0000 0.0000 0.0000 0.0000 0.0000 0.0000 0.0000 0.0000 0.0000 0.0000 0.0000 0.0000 0.0000 0.0000 0.0000 0.0000 0.0000 0.0000 0.0000 0.0000 0.0000 0.0000 0.0000 0.0000 0.0000 0.0000 0.0000 0.0000 0.0000 0.0000 0.0000 0.0000 0.0000 0.0000 0.0000 0.0000 0.0000 0.0000 0.0000 0.0000 0.0000 0.0000 0.0000 0.0000 0.0000 0.0000 0.0000 0.0000 0.0000 0.0000 0.0000 0.0000 0.0000 0.0000 0.0000 0.0000 0.0000 0.0000 0.0000 0.0000 0.0000 0.0000 0.0000 0.0000 0.0000 0.0000 0.0000 0.0000 0.0000 0.0000 0.0000 0.0000 0.0000 0.0000 0.0000 0.0000 0.0000 0.0000 0.0000 0.0000 0.0000 0.0000 0.0000 0.0000 0.0000 0.0000 0.0000 0.0000 0.0000 0.0000 0.0000 0.0000 0.0000 0.0000 0.0000 0.0000 0.0000 0.0000 0.0000 0.0000 0.0000 0.0000 0.0000 0.0000 0.0000 0.0000 0.0000 0.0000 0.0000 0.0000 0.0000 0.0000 0.0000 0.0000 0.0000 0.0000 0.0000 0.0000 0.0000 0.0000 0.0000 0.0000 0.0000 0.0000 0.0000 0.0000 0.0000 0.0000 0.0000 0.0000 0.0000 0.0000 0.0000 0.0000 0.0000 0.0000 0.0000 0.0000 0.0000 0.0000 0.0000 0.0000 0.0000 0.0000 0.0000 0.0000 0.0000 0.0000 0.0000 0.0000 0.0000 0.0000 0.0000 0.0000 0.0000 0.0000 0.0000 0.0000 0.0000 0.0000 0.0000 0.0000 0.0000 0.0000 0.0000 0.0000 0.0000 0.0000 0.0000 0.0000 0.0000 0.0000 0.0000 0.0000 0.0000 0.0000 0.0000 0.0000 0.0000 0.0000 0.0000 0.0000 0.0000 0.0000 0.0000 0.0000 0.0000 0.0000 0.0000 0.0000 0.0000 0.0000 0.0000 0.0000 0.0000 0.0000 0.0000 0.0000 0.0000 0.0000 0.0000 0.0000 0.0000 0.0000 0.0000 0.0000 0.0000 0.0000 0.0000 0.0000 0.0000 0.0000 0.0000 0.0000 0.0000 0.0000 0.0000 0.0000 0.0000 0.0000 0.0000 0.0000 0.0000 0.0000 0.0000 0.0000 0.0000 0.0000 0.0000 0.0000 0.0000 0.0000 0.0000 0.0000 0.0000 0.0000 0.0000 0.0000 0.0000 0.0000 0.0000 0.0000 0.0000 0.0000 0.0000 0.0000 0.0000 0.0000 0.0000 0.0000 0.0000 0.0000 0.0000 0.0000 0.0000 0.0000 0.0000 0.0000 0.0000 0.0000 0.0000 0.0000 0.0000 0.0000 0.0000 0.0000 0.0000 0.0000 0.0000 0.0000 0.0000 0.0000 0.0000 0.0000 0.0000 0.0000 0.0000 0.0000 0.0000 0.0000 0.0000 0.0000 0.0000 0.0000 0.0000 0.0000 0.0000 0.0000 0.0000 0.0000 0.0000 0.0000 0.0000 0.0000 0.0000 0.0000 0.0000 0.0000 0.0000 0.0000 0.0000 0.0000 0.0000 0.0000 0.0000 0.0000 0.0000 0.0000 0.0000 0.0000 0.0000 0.0000 0.0000 0.0000 0.0000 0.0000 0.0000 0.0000 0.0000 0.0000 0.0000 0.0000 0.0000 0.0000 0.0000 0.0000 0.0000 0.0000 0.0000 0.0000 0.0000 0.0000 0.0000 0.0000 0.0000 0.0000 0.0000 
</DataArray>
<DataArray type="Float32" Name="Radius" NumberOfComponents="1" format="ascii">
0.2836 0.4013 0.1318 0.2016 0.1180 0.3971 0.2083 0.1983 0.2316 0.1830 0.2083 0.3713 0.4684 0.4068 0.0904 0.1829 0.3563 0.0426 0.3370 0.0706 0.0906 0.2770 0.1479 0.2597 0.1799 0.0357 0.2470 0.1111 0.3861 0.1728 0.2415 0.1488 0.1852 0.4082 0.0789 0.3617 0.1983 0.2946 0.1310 0.1777 0.1186 0.0958 0.1461 0.1204 0.1697 0.2266 0.0285 0.2738 0.2145 0.1500 0.0684 0.3210 0.0978 0.3387 0.0725 0.0663 0.3437 0.1516 0.2290 0.0523 0.2101 0.1609 0.0319 0.2682 0.0319 0.0594 0.1467 0.1322 0.2393 0.1851 0.2074 0.1030 0.1359 0.2829 0.0245 0.0362 0.0912 0.0360 0.0578 0.0281 0.2335 0.3751 0.1181 0.0882 0.3214 0.0469 0.0591 0.0801 0.0418 0.0249 0.0686 0.2172 0.0552 0.1891 0.2694 0.2488 0.1514 0.0359 0.0394 0.1545 0.0395 0.0915 0.0982 0.0338 0.4255 0.1590 0.0297 0.2410 0.0967 0.2990 0.0949 0.2044 0.0293 0.2959 0.0623 0.1153 0.4013 0.0394 0.1161 0.0410 0.0430 0.0311 0.1806 0.2180 0.0308 0.2285 0.2693 0.2762 0.0354 0.2923 0.0539 0.0326 0.0331 0.0287 0.1362 0.0691 0.3517 0.2116 0.0355 0.0407 0.1352 0.1315 0.3295 0.0442 0.1371 0.3589 0.1107 0.0280 0.0997 0.3400 0.0311 0.0302 0.0244 0.0339 0.0381 0.1598 0.0273 0.1295 0.1480 0.0285 0.0812 0.0806 0.0313 0.0323 0.0845 0.0343 0.0294 0.1745 0.0162 0.0255 0.2424 0.0492 0.2341 0.2743 0.1852 0.0231 0.0286 0.0249 0.1995 0.0970 0.1169 0.0313 
</DataArray>
</PointData>
<CellData/>
</Piece>
</UnstructuredGrid>
</VTKFile>
