<?xml version="1.0"?>
<VTKFile type="UnstructuredGrid" version="0.1" byte_order="LittleEndian">
 <UnstructuredGrid>
  <Piece NumberOfPoints="182" NumberOfCells="0">
   <Cells>
    <DataArray type="Int32" name="connectivity" format="ascii">
       0
    </DataArray>
    <DataArray type="Float32" name="offset" format="ascii">
       0
    </DataArray>
    <DataArray type="UInt8" name="types" format="ascii">
       1
    </DataArray>
   </Cells>
   <Points>
<DataArray type="Float32" NumberOfComponents="3" format="ascii">
-0.1308 -0.0848 -0.1720 -0.1646 0.0597 0.0537 -0.1632 -0.3134 0.1245 0.2045 -0.1921 -0.2767 -0.0516 0.4668 0.1718 0.0270 -0.1136 -0.0710 -0.2503 0.2350 -0.1827 -0.3120 0.2860 -0.0509 -0.2476 -0.1249 -0.0646 -0.3350 0.2786 0.0489 -0.1887 0.1023 -0.2824 -0.1104 -0.0008 -0.1183 -0.0057 0.0482 -0.0139 -0.0703 0.0660 -0.1159 -0.2236 0.2099 -0.4246 -0.0633 -0.2489 0.2072 0.2193 -0.0445 0.0659 0.2212 0.0447 -0.4456 0.2183 -0.1121 0.1316 -0.4473 -0.1689 -0.0126 0.1355 -0.0101 -0.4587 0.2397 -0.0899 -0.0813 0.1783 -0.1674 -0.3847 0.0866 -0.3115 0.1510 0.0029 0.4139 0.0843 -0.5458 -0.0596 0.1934 -0.1213 0.2788 0.2059 -0.0174 -0.4934 0.0974 -0.0053 -0.0194 0.0959 -0.1972 -0.2409 -0.1187 0.1629 -0.0750 -0.2585 -0.4115 0.1533 0.1645 0.2333 -0.1985 0.2978 -0.1218 0.1502 0.0713 0.4193 -0.0586 0.3265 0.1867 -0.1742 0.0402 -0.4006 -0.0074 0.0963 0.0258 -0.2518 0.1044 -0.4685 0.1137 0.0848 0.2843 0.0607 -0.1926 -0.0998 -0.4285 0.0133 0.4230 0.1572 -0.0121 0.4006 -0.0418 0.2399 -0.1134 -0.4000 0.0716 -0.2064 0.1939 -0.3243 -0.0129 -0.3217 -0.0090 -0.0497 0.0522 -0.5986 0.0552 -0.1926 0.1850 0.0613 -0.3728 0.0717 -0.4048 -0.0955 0.0308 0.5232 0.0478 0.1618 0.1375 0.0056 -0.1643 -0.4703 -0.0059 0.2190 0.0112 -0.0109 -0.2142 -0.3846 0.0986 0.3660 -0.2383 0.4986 0.0552 0.1666 -0.0197 -0.0888 0.2870 -0.2697 -0.2264 -0.3390 0.1864 0.0605 0.5188 0.1196 0.0523 -0.0566 0.0530 -0.3733 -0.2495 0.1955 0.3214 -0.3719 0.3427 -0.3151 0.1111 -0.1044 -0.2742 0.2779 -0.2553 -0.4606 -0.1807 0.1699 -0.5036 0.0618 -0.0581 -0.4510 -0.1674 -0.3461 0.0124 -0.1693 -0.1941 0.0242 0.1420 -0.2677 0.2828 -0.2795 0.1357 0.2611 0.3544 -0.3744 -0.0853 0.3284 -0.3082 -0.1649 -0.1266 -0.1347 0.0971 -0.1013 0.0911 -0.5912 -0.0084 -0.5378 0.2217 -0.1840 0.3040 0.3812 0.1179 0.5247 0.0258 -0.3832 0.3597 -0.2200 0.1368 -0.1216 -0.5737 -0.1192 0.3547 0.0931 0.0978 -0.1053 0.1079 0.2474 -0.4359 0.0471 -0.0208 0.0196 -0.5244 0.1504 0.0699 -0.0955 0.3357 -0.3146 -0.3448 0.5530 -0.0065 0.0953 -0.1786 -0.4048 -0.0650 0.1953 -0.1837 -0.5167 0.3726 -0.3537 -0.3176 0.1052 -0.3980 0.3558 -0.2627 0.3081 0.0119 0.0055 0.5228 0.2059 -0.1338 0.1257 -0.3637 0.1493 -0.3045 0.0851 0.2624 0.0972 0.0026 -0.0096 -0.1913 -0.3391 0.0399 0.5675 0.1299 0.1229 -0.5634 0.0850 0.0998 0.3800 -0.0019 -0.3031 0.2862 -0.4101 0.4818 -0.2140 0.0510 -0.0368 0.4557 0.2430 0.0545 0.5742 0.0924 -0.1188 0.0174 0.0119 0.4206 -0.0130 0.1801 0.0245 -0.0173 -0.5998 0.3526 -0.1007 0.0924 -0.2929 0.2749 -0.3256 0.0005 0.2545 0.0155 0.5031 0.0632 0.0903 -0.1354 -0.2708 -0.0704 0.0751 -0.0788 -0.5919 0.1565 -0.0009 0.1575 -0.1406 0.1322 -0.5239 0.4443 0.0961 0.0729 0.0698 -0.1605 0.0536 0.2977 -0.2781 -0.4195 -0.0347 0.4922 0.1008 0.3846 -0.1140 0.4060 -0.4159 0.3706 -0.1792 0.2384 -0.2311 -0.4965 0.1974 -0.2652 -0.2077 0.0343 -0.3824 0.1027 0.0198 -0.5090 0.2897 -0.0543 0.3614 0.1331 0.2170 -0.2040 -0.1159 -0.3171 0.0506 0.1162 -0.5729 -0.0791 0.0988 0.1779 -0.2341 0.1364 0.1563 -0.1467 -0.5261 0.3445 -0.1616 0.4366 0.4446 -0.3671 -0.1407 0.2303 -0.2846 0.4535 -0.1570 -0.2564 -0.2315 -0.4554 0.0247 0.2987 -0.0768 0.1648 -0.0613 0.1254 -0.2971 0.2406 -0.0528 0.4752 0.3290 0.3563 -0.4597 -0.0478 0.0805 0.2500 -0.2926 -0.3862 0.0971 0.2736 -0.1781 0.1672 -0.0644 0.4676 -0.3376 -0.0677 0.1174 -0.1103 -0.4408 -0.0434 0.2053 0.0575 -0.3992 0.0639 0.3000 -0.3903 0.3645 -0.2777 0.2007 -0.2813 0.3782 0.1348 -0.1266 -0.1420 0.0509 -0.4756 0.3353 -0.2834 0.2723 -0.4508 -0.5556 -0.1222 0.0609 0.3861 -0.3686 -0.2655 -0.0972 -0.5364 0.0461 0.4018 0.0827 0.0392 0.3341 -0.4941 -0.0122 -0.3385 0.3179 -0.1545 -0.3626 0.2064 0.2126 -0.2356 0.2173 -0.5079 -0.0767 -0.2739 -0.3486 -0.1404 -0.2606 -0.3251 0.5199 -0.2836 0.0058 0.0284 0.5609 0.1709 -0.4514 0.2936 -0.0144 -0.2318 0.2847 0.4477 0.3303 -0.3053 -0.3966 0.0942 0.0833 0.2841 0.5963 -0.0566 0.0839 0.5081 -0.3158 -0.0283 0.1704 -0.2295 0.2359 -0.0024 -0.1720 -0.4796 -0.2008 0.1887 -0.2263 -0.0789 -0.1258 0.1558 0.4204 -0.0230 0.1039 -0.0763 0.4505 0.3741 0.1677 -0.5660 0.0720 0.0508 -0.0504 -0.6023 -0.1894 0.2368 0.2809 -0.2738 -0.2403 -0.1919 0.3827 -0.3244 -0.0822 -0.5814 0.0540 0.0867 
</DataArray>
    </Points>
    <PointData>
<DataArray type="Float32" Name="Position" NumberOfComponents="3" format="ascii">
-0.1308 -0.0848 -0.1720 -0.1646 0.0597 0.0537 -0.1632 -0.3134 0.1245 0.2045 -0.1921 -0.2767 -0.0516 0.4668 0.1718 0.0270 -0.1136 -0.0710 -0.2503 0.2350 -0.1827 -0.3120 0.2860 -0.0509 -0.2476 -0.1249 -0.0646 -0.3350 0.2786 0.0489 -0.1887 0.1023 -0.2824 -0.1104 -0.0008 -0.1183 -0.0057 0.0482 -0.0139 -0.0703 0.0660 -0.1159 -0.2236 0.2099 -0.4246 -0.0633 -0.2489 0.2072 0.2193 -0.0445 0.0659 0.2212 0.0447 -0.4456 0.2183 -0.1121 0.1316 -0.4473 -0.1689 -0.0126 0.1355 -0.0101 -0.4587 0.2397 -0.0899 -0.0813 0.1783 -0.1674 -0.3847 0.0866 -0.3115 0.1510 0.0029 0.4139 0.0843 -0.5458 -0.0596 0.1934 -0.1213 0.2788 0.2059 -0.0174 -0.4934 0.0974 -0.0053 -0.0194 0.0959 -0.1972 -0.2409 -0.1187 0.1629 -0.0750 -0.2585 -0.4115 0.1533 0.1645 0.2333 -0.1985 0.2978 -0.1218 0.1502 0.0713 0.4193 -0.0586 0.3265 0.1867 -0.1742 0.0402 -0.4006 -0.0074 0.0963 0.0258 -0.2518 0.1044 -0.4685 0.1137 0.0848 0.2843 0.0607 -0.1926 -0.0998 -0.4285 0.0133 0.4230 0.1572 -0.0121 0.4006 -0.0418 0.2399 -0.1134 -0.4000 0.0716 -0.2064 0.1939 -0.3243 -0.0129 -0.3217 -0.0090 -0.0497 0.0522 -0.5986 0.0552 -0.1926 0.1850 0.0613 -0.3728 0.0717 -0.4048 -0.0955 0.0308 0.5232 0.0478 0.1618 0.1375 0.0056 -0.1643 -0.4703 -0.0059 0.2190 0.0112 -0.0109 -0.2142 -0.3846 0.0986 0.3660 -0.2383 0.4986 0.0552 0.1666 -0.0197 -0.0888 0.2870 -0.2697 -0.2264 -0.3390 0.1864 0.0605 0.5188 0.1196 0.0523 -0.0566 0.0530 -0.3733 -0.2495 0.1955 0.3214 -0.3719 0.3427 -0.3151 0.1111 -0.1044 -0.2742 0.2779 -0.2553 -0.4606 -0.1807 0.1699 -0.5036 0.0618 -0.0581 -0.4510 -0.1674 -0.3461 0.0124 -0.1693 -0.1941 0.0242 0.1420 -0.2677 0.2828 -0.2795 0.1357 0.2611 0.3544 -0.3744 -0.0853 0.3284 -0.3082 -0.1649 -0.1266 -0.1347 0.0971 -0.1013 0.0911 -0.5912 -0.0084 -0.5378 0.2217 -0.1840 0.3040 0.3812 0.1179 0.5247 0.0258 -0.3832 0.3597 -0.2200 0.1368 -0.1216 -0.5737 -0.1192 0.3547 0.0931 0.0978 -0.1053 0.1079 0.2474 -0.4359 0.0471 -0.0208 0.0196 -0.5244 0.1504 0.0699 -0.0955 0.3357 -0.3146 -0.3448 0.5530 -0.0065 0.0953 -0.1786 -0.4048 -0.0650 0.1953 -0.1837 -0.5167 0.3726 -0.3537 -0.3176 0.1052 -0.3980 0.3558 -0.2627 0.3081 0.0119 0.0055 0.5228 0.2059 -0.1338 0.1257 -0.3637 0.1493 -0.3045 0.0851 0.2624 0.0972 0.0026 -0.0096 -0.1913 -0.3391 0.0399 0.5675 0.1299 0.1229 -0.5634 0.0850 0.0998 0.3800 -0.0019 -0.3031 0.2862 -0.4101 0.4818 -0.2140 0.0510 -0.0368 0.4557 0.2430 0.0545 0.5742 0.0924 -0.1188 0.0174 0.0119 0.4206 -0.0130 0.1801 0.0245 -0.0173 -0.5998 0.3526 -0.1007 0.0924 -0.2929 0.2749 -0.3256 0.0005 0.2545 0.0155 0.5031 0.0632 0.0903 -0.1354 -0.2708 -0.0704 0.0751 -0.0788 -0.5919 0.1565 -0.0009 0.1575 -0.1406 0.1322 -0.5239 0.4443 0.0961 0.0729 0.0698 -0.1605 0.0536 0.2977 -0.2781 -0.4195 -0.0347 0.4922 0.1008 0.3846 -0.1140 0.4060 -0.4159 0.3706 -0.1792 0.2384 -0.2311 -0.4965 0.1974 -0.2652 -0.2077 0.0343 -0.3824 0.1027 0.0198 -0.5090 0.2897 -0.0543 0.3614 0.1331 0.2170 -0.2040 -0.1159 -0.3171 0.0506 0.1162 -0.5729 -0.0791 0.0988 0.1779 -0.2341 0.1364 0.1563 -0.1467 -0.5261 0.3445 -0.1616 0.4366 0.4446 -0.3671 -0.1407 0.2303 -0.2846 0.4535 -0.1570 -0.2564 -0.2315 -0.4554 0.0247 0.2987 -0.0768 0.1648 -0.0613 0.1254 -0.2971 0.2406 -0.0528 0.4752 0.3290 0.3563 -0.4597 -0.0478 0.0805 0.2500 -0.2926 -0.3862 0.0971 0.2736 -0.1781 0.1672 -0.0644 0.4676 -0.3376 -0.0677 0.1174 -0.1103 -0.4408 -0.0434 0.2053 0.0575 -0.3992 0.0639 0.3000 -0.3903 0.3645 -0.2777 0.2007 -0.2813 0.3782 0.1348 -0.1266 -0.1420 0.0509 -0.4756 0.3353 -0.2834 0.2723 -0.4508 -0.5556 -0.1222 0.0609 0.3861 -0.3686 -0.2655 -0.0972 -0.5364 0.0461 0.4018 0.0827 0.0392 0.3341 -0.4941 -0.0122 -0.3385 0.3179 -0.1545 -0.3626 0.2064 0.2126 -0.2356 0.2173 -0.5079 -0.0767 -0.2739 -0.3486 -0.1404 -0.2606 -0.3251 0.5199 -0.2836 0.0058 0.0284 0.5609 0.1709 -0.4514 0.2936 -0.0144 -0.2318 0.2847 0.4477 0.3303 -0.3053 -0.3966 0.0942 0.0833 0.2841 0.5963 -0.0566 0.0839 0.5081 -0.3158 -0.0283 0.1704 -0.2295 0.2359 -0.0024 -0.1720 -0.4796 -0.2008 0.1887 -0.2263 -0.0789 -0.1258 0.1558 0.4204 -0.0230 0.1039 -0.0763 0.4505 0.3741 0.1677 -0.5660 0.0720 0.0508 -0.0504 -0.6023 -0.1894 0.2368 0.2809 -0.2738 -0.2403 -0.1919 0.3827 -0.3244 -0.0822 -0.5814 0.0540 0.0867 
</DataArray>
<DataArray type="Float32" Name="Velocity" NumberOfComponents="3" format="ascii">
0.0000 0.0000 0.0000 0.0000 0.0000 0.0000 0.0000 0.0000 0.0000 0.0000 0.0000 0.0000 0.0000 0.0000 0.0000 0.0000 0.0000 0.0000 0.0000 0.0000 0.0000 0.0000 0.0000 0.0000 0.0000 0.0000 0.0000 0.0000 0.0000 0.0000 0.0000 0.0000 0.0000 0.0000 0.0000 0.0000 0.0000 0.0000 0.0000 0.0000 0.0000 0.0000 0.0000 0.0000 0.0000 0.0000 0.0000 0.0000 0.0000 0.0000 0.0000 0.0000 0.0000 0.0000 0.0000 0.0000 0.0000 0.0000 0.0000 0.0000 0.0000 0.0000 0.0000 0.0000 0.0000 0.0000 0.0000 0.0000 0.0000 0.0000 0.0000 0.0000 0.0000 0.0000 0.0000 0.0000 0.0000 0.0000 0.0000 0.0000 0.0000 0.0000 0.0000 0.0000 0.0000 0.0000 0.0000 0.0000 0.0000 0.0000 0.0000 0.0000 0.0000 0.0000 0.0000 0.0000 0.0000 0.0000 0.0000 0.0000 0.0000 0.0000 0.0000 0.0000 0.0000 0.0000 0.0000 0.0000 0.0000 0.0000 0.0000 0.0000 0.0000 0.0000 0.0000 0.0000 0.0000 0.0000 0.0000 0.0000 0.0000 0.0000 0.0000 0.0000 0.0000 0.0000 0.0000 0.0000 0.0000 0.0000 0.0000 0.0000 0.0000 0.0000 0.0000 0.0000 0.0000 0.0000 0.0000 0.0000 0.0000 0.0000 0.0000 0.0000 0.0000 0.0000 0.0000 0.0000 0.0000 0.0000 0.0000 0.0000 0.0000 0.0000 0.0000 0.0000 0.0000 0.0000 0.0000 0.0000 0.0000 0.0000 0.0000 0.0000 0.0000 0.0000 0.0000 0.0000 0.0000 0.0000 0.0000 0.0000 0.0000 0.0000 0.0000 0.0000 0.0000 0.0000 0.0000 0.0000 0.0000 0.0000 0.0000 0.0000 0.0000 0.0000 0.0000 0.0000 0.0000 0.0000 0.0000 0.0000 0.0000 0.0000 0.0000 0.0000 0.0000 0.0000 0.0000 0.0000 0.0000 0.0000 0.0000 0.0000 0.0000 0.0000 0.0000 0.0000 0.0000 0.0000 0.0000 0.0000 0.0000 0.0000 0.0000 0.0000 0.0000 0.0000 0.0000 0.0000 0.0000 0.0000 0.0000 0.0000 0.0000 0.0000 0.0000 0.0000 0.0000 0.0000 0.0000 0.0000 0.0000 0.0000 0.0000 0.0000 0.0000 0.0000 0.0000 0.0000 0.0000 0.0000 0.0000 0.0000 0.0000 0.0000 0.0000 0.0000 0.0000 0.0000 0.0000 0.0000 0.0000 0.0000 0.0000 0.0000 0.0000 0.0000 0.0000 0.0000 0.0000 0.0000 0.0000 0.0000 0.0000 0.0000 0.0000 0.0000 0.0000 0.0000 0.0000 0.0000 0.0000 0.0000 0.0000 0.0000 0.0000 0.0000 0.0000 0.0000 0.0000 0.0000 0.0000 0.0000 0.0000 0.0000 0.0000 0.0000 0.0000 0.0000 0.0000 0.0000 0.0000 0.0000 0.0000 0.0000 0.0000 0.0000 0.0000 0.0000 0.0000 0.0000 0.0000 0.0000 0.0000 0.0000 0.0000 0.0000 0.0000 0.0000 0.0000 0.0000 0.0000 0.0000 0.0000 0.0000 0.0000 0.0000 0.0000 0.0000 0.0000 0.0000 0.0000 0.0000 0.0000 0.0000 0.0000 0.0000 0.0000 0.0000 0.0000 0.0000 0.0000 0.0000 0.0000 0.0000 0.0000 0.0000 0.0000 0.0000 0.0000 0.0000 0.0000 0.0000 0.0000 0.0000 0.0000 0.0000 0.0000 0.0000 0.0000 0.0000 0.0000 0.0000 0.0000 0.0000 0.0000 0.0000 0.0000 0.0000 0.0000 0.0000 0.0000 0.0000 0.0000 0.0000 0.0000 0.0000 0.0000 0.0000 0.0000 0.0000 0.0000 0.0000 0.0000 0.0000 0.0000 0.0000 0.0000 0.0000 0.0000 0.0000 0.0000 0.0000 0.0000 0.0000 0.0000 0.0000 0.0000 0.0000 0.0000 0.0000 0.0000 0.0000 0.0000 0.0000 0.0000 0.0000 0.0000 0.0000 0.0000 0.0000 0.0000 0.0000 0.0000 0.0000 0.0000 0.0000 0.0000 0.0000 0.0000 0.0000 0.0000 0.0000 0.0000 0.0000 0.0000 0.0000 0.0000 0.0000 0.0000 0.0000 0.0000 0.0000 0.0000 0.0000 0.0000 0.0000 0.0000 0.0000 0.0000 0.0000 0.0000 0.0000 0.0000 0.0000 0.0000 0.0000 0.0000 0.0000 0.0000 0.0000 0.0000 0.0000 0.0000 0.0000 0.0000 0.0000 0.0000 0.0000 0.0000 0.0000 0.0000 0.0000 0.0000 0.0000 0.0000 0.0000 0.0000 0.0000 0.0000 0.0000 0.0000 0.0000 0.0000 0.0000 0.0000 0.0000 0.0000 0.0000 0.0000 0.0000 0.0000 0.0000 0.0000 0.0000 0.0000 0.0000 0.0000 0.0000 0.0000 0.0000 0.0000 0.0000 0.0000 0.0000 0.0000 0.0000 0.0000 0.0000 0.0000 0.0000 0.0000 0.0000 0.0000 0.0000 0.0000 0.0000 0.0000 0.0000 0.0000 0.0000 0.0000 0.0000 0.0000 0.0000 0.0000 0.0000 0.0000 0.0000 0.0000 0.0000 0.0000 0.0000 0.0000 0.0000 0.0000 0.0000 0.0000 0.0000 0.0000 0.0000 0.0000 0.0000 0.0000 0.0000 0.0000 0.0000 0.0000 0.0000 0.0000 0.0000 0.0000 0.0000 0.0000 0.0000 0.0000 0.0000 0.0000 0.0000 0.0000 0.0000 0.0000 0.0000 0.0000 0.0000 
</DataArray>
<DataArray type="Float32" Name="Radius" NumberOfComponents="1" format="ascii">
0.2836 0.4013 0.1318 0.2016 0.1180 0.3971 0.2083 0.1983 0.2316 0.1830 0.2083 0.3713 0.4684 0.4068 0.0904 0.1829 0.3563 0.0426 0.3370 0.0706 0.0906 0.2770 0.1479 0.2597 0.1799 0.0357 0.2470 0.1111 0.3861 0.1728 0.2415 0.1488 0.1852 0.4082 0.0789 0.3617 0.1983 0.2946 0.1310 0.1777 0.1186 0.0958 0.1461 0.1204 0.1697 0.2266 0.0285 0.2738 0.2145 0.1500 0.0684 0.3210 0.0978 0.3387 0.0725 0.0663 0.3437 0.1516 0.2290 0.0523 0.2101 0.1609 0.0319 0.2682 0.0319 0.0594 0.1467 0.1322 0.2393 0.1851 0.2074 0.1030 0.1359 0.2829 0.0245 0.0362 0.0912 0.0360 0.0578 0.0281 0.2335 0.3751 0.1181 0.0882 0.3214 0.0469 0.0591 0.0801 0.0418 0.0249 0.0686 0.2172 0.0552 0.1891 0.2694 0.2488 0.1514 0.0359 0.0394 0.1545 0.0395 0.0915 0.0982 0.0338 0.4255 0.1590 0.0297 0.2410 0.0967 0.2990 0.0949 0.2044 0.0293 0.2959 0.0623 0.1153 0.4013 0.0394 0.1161 0.0410 0.0430 0.0311 0.1806 0.2180 0.0308 0.2285 0.2693 0.2762 0.0354 0.2923 0.0539 0.0326 0.0331 0.0287 0.1362 0.0691 0.3517 0.2116 0.0355 0.0407 0.1352 0.1315 0.3295 0.0442 0.1371 0.3589 0.1107 0.0280 0.0997 0.3400 0.0311 0.0302 0.0244 0.0339 0.0381 0.1598 0.0273 0.1295 0.1480 0.0285 0.0812 0.0806 0.0313 0.0323 0.0845 0.0343 0.0294 0.1745 0.0162 0.0255 0.2424 0.0492 0.2341 0.2743 0.1852 0.0231 0.0286 0.0249 0.1995 0.0970 0.1169 0.0313 
</DataArray>
</PointData>
<CellData/>
</Piece>
</UnstructuredGrid>
</VTKFile>
