<?xml version="1.0"?>
<VTKFile type="UnstructuredGrid" version="0.1" byte_order="LittleEndian">
 <UnstructuredGrid>
  <Piece NumberOfPoints="182" NumberOfCells="0">
   <Cells>
    <DataArray type="Int32" name="connectivity" format="ascii">
       0
    </DataArray>
    <DataArray type="Float32" name="offset" format="ascii">
       0
    </DataArray>
    <DataArray type="UInt8" name="types" format="ascii">
       1
    </DataArray>
   </Cells>
   <Points>
<DataArray type="Float32" NumberOfComponents="3" format="ascii">
0.1514 -0.0373 -0.1720 0.0691 -0.1609 0.0537 0.3402 0.0955 0.1245 0.0001 0.2806 -0.2767 -0.3050 -0.3572 0.1718 0.0643 0.0975 -0.0710 0.0000 -0.3433 -0.1827 0.0052 -0.4232 -0.0509 0.2605 -0.0951 -0.0646 0.0262 -0.4349 0.0489 0.0546 -0.2076 -0.2824 0.0761 -0.0799 -0.1183 -0.0312 -0.0371 -0.0139 0.0000 -0.0965 -0.1159 0.0001 -0.3067 -0.4246 0.2248 0.1242 0.2072 -0.1177 0.1903 0.0659 -0.1840 0.1307 -0.4456 -0.0678 0.2359 0.1316 0.4294 -0.2105 -0.0126 -0.0854 0.1057 -0.4587 -0.0986 0.2362 -0.0813 0.0000 0.2446 -0.3847 0.1678 0.2764 0.1510 -0.3037 -0.2812 0.0843 0.4170 -0.3571 0.1934 -0.1202 -0.2793 0.2059 0.3716 0.3250 0.0974 0.0178 0.0095 0.0959 0.3106 0.0211 -0.1187 -0.0569 0.1701 -0.2585 0.1700 -0.4049 0.1645 -0.0150 0.3059 0.2978 -0.0261 -0.1916 0.0713 -0.2444 0.3458 0.3265 -0.0008 0.2553 0.0402 0.2796 -0.2870 0.0963 0.1659 0.1912 0.1044 0.2379 -0.4193 0.0848 -0.2388 0.1657 -0.1926 0.3807 0.2206 0.0133 -0.4041 0.2007 -0.0121 -0.2438 0.3206 0.2399 0.3693 0.1912 0.0716 0.0000 -0.2832 -0.3243 0.2433 0.2108 -0.0090 -0.0041 -0.0720 -0.5986 0.1026 0.1720 0.1850 0.2298 0.2998 0.0717 0.3467 -0.2297 0.0308 -0.3930 0.3487 0.1618 -0.0982 0.0964 -0.1643 0.3263 -0.3388 0.2190 0.0002 0.0156 -0.2142 0.1914 -0.3479 0.3660 -0.2003 -0.5150 0.0552 -0.0997 0.1349 -0.0888 0.0001 0.3939 -0.2264 0.0961 -0.3747 0.0605 -0.4423 0.2963 0.0523 0.0001 -0.0775 -0.3733 0.0283 -0.3157 0.3214 0.0048 -0.5057 -0.3151 0.0000 0.1524 -0.2742 -0.0041 0.3773 -0.4606 -0.0001 -0.2480 -0.5036 0.0001 0.0848 -0.4510 0.3669 0.1149 0.0124 0.2573 0.0094 0.0242 0.0980 0.2868 0.2828 0.0924 -0.2966 0.2611 0.0303 0.5146 -0.0853 -0.0001 0.4504 -0.1649 0.1849 -0.0001 0.0971 0.0029 -0.1362 -0.5912 0.3978 0.3621 0.2217 -0.0956 -0.3422 0.3812 -0.4632 -0.2733 0.0258 0.0001 -0.5256 -0.2200 -0.0050 0.1830 -0.5737 -0.1770 -0.3297 0.0931 0.0098 0.1433 0.1079 0.1484 0.4787 0.0471 -0.0000 -0.0286 -0.5244 -0.1539 0.0618 -0.0955 -0.0005 0.4601 -0.3448 -0.3738 0.4075 0.0953 0.4173 0.1469 -0.0650 0.0002 0.2681 -0.5167 0.0027 0.5137 -0.3176 0.2182 0.3492 0.3558 -0.0448 -0.4024 0.0119 -0.3849 -0.3539 0.2059 -0.0000 -0.1836 -0.3637 0.1198 0.3172 0.0851 -0.2505 0.1248 0.0026 0.1460 0.1240 -0.3391 -0.4410 -0.3594 0.1299 0.3265 0.4752 0.0850 -0.3454 -0.1874 -0.0019 -0.0011 -0.4168 -0.4101 -0.1738 0.4977 0.0510 -0.3070 -0.3388 0.2430 -0.4559 -0.3533 0.0924 0.0687 -0.0985 0.0119 -0.2784 0.3155 0.1801 -0.0041 0.0297 -0.5998 -0.1680 0.3260 0.0924 0.0001 -0.4017 -0.3256 -0.1858 -0.1739 0.0155 -0.3904 0.3235 0.0903 0.2901 0.0867 -0.0704 0.0060 0.1087 -0.5919 -0.1065 0.1147 0.1575 -0.0002 -0.1930 -0.5239 -0.3742 0.2581 0.0729 0.0692 0.1607 0.0536 -0.0010 0.4074 -0.4195 -0.3351 -0.3622 0.1008 -0.1801 0.3584 0.4060 0.0145 -0.5569 -0.1792 0.0052 0.3320 -0.4965 0.0582 0.3254 -0.2077 0.2553 0.2868 0.1027 0.3575 0.3628 0.2897 -0.2263 -0.2870 0.1331 0.0001 0.2978 -0.1159 0.1802 -0.2658 0.1162 0.4499 -0.3635 0.0988 0.0488 0.2899 0.1364 -0.0001 0.2144 -0.5261 -0.1180 0.3618 0.4366 -0.0367 0.5754 -0.1407 0.0498 0.3627 0.4535 0.2944 0.0611 -0.2315 0.2937 -0.3489 0.2987 -0.0676 -0.1688 -0.0613 0.1307 0.2948 0.2406 -0.3103 -0.3638 0.3290 0.0912 0.5744 -0.0478 -0.2374 -0.1125 -0.2926 0.1936 -0.3480 0.2736 -0.0000 -0.2443 -0.0644 -0.0741 0.5720 -0.0677 0.0000 0.1612 -0.4408 -0.1200 -0.1722 0.0575 0.2267 -0.3348 0.3000 0.0015 -0.5340 -0.2777 0.0677 0.3389 0.3782 0.0000 0.1849 -0.1420 0.3119 0.3627 0.3353 -0.0045 -0.3930 -0.4508 0.4694 -0.3213 0.0609 0.0044 0.5338 -0.2655 0.4576 0.2963 0.0461 -0.3354 0.2363 0.0392 0.1315 0.5817 -0.0122 0.0000 -0.4643 -0.1545 0.0977 -0.4057 0.2126 0.0029 -0.3205 -0.5079 0.2521 0.1316 -0.3486 0.2861 0.0761 -0.3251 -0.1491 0.5731 0.0058 -0.4283 -0.3632 0.1709 0.0950 -0.5300 -0.0144 -0.0489 -0.3639 0.4477 -0.0036 0.4498 -0.3966 -0.1252 0.0116 0.2841 -0.3669 0.4734 0.0839 -0.1176 0.5865 -0.0283 0.0507 0.2813 0.2359 0.1270 0.1160 -0.4796 -0.0000 -0.2755 -0.2263 0.1457 0.0286 0.1558 -0.2711 0.3222 0.1039 -0.2762 -0.3641 0.3741 0.2978 0.5097 0.0720 0.0019 0.0716 -0.6023 -0.0429 -0.3002 0.2809 0.3626 -0.0351 -0.1919 -0.0255 0.5011 -0.0822 0.3587 -0.4608 0.0867 
</DataArray>
    </Points>
    <PointData>
<DataArray type="Float32" Name="Position" NumberOfComponents="3" format="ascii">
0.1514 -0.0373 -0.1720 0.0691 -0.1609 0.0537 0.3402 0.0955 0.1245 0.0001 0.2806 -0.2767 -0.3050 -0.3572 0.1718 0.0643 0.0975 -0.0710 0.0000 -0.3433 -0.1827 0.0052 -0.4232 -0.0509 0.2605 -0.0951 -0.0646 0.0262 -0.4349 0.0489 0.0546 -0.2076 -0.2824 0.0761 -0.0799 -0.1183 -0.0312 -0.0371 -0.0139 0.0000 -0.0965 -0.1159 0.0001 -0.3067 -0.4246 0.2248 0.1242 0.2072 -0.1177 0.1903 0.0659 -0.1840 0.1307 -0.4456 -0.0678 0.2359 0.1316 0.4294 -0.2105 -0.0126 -0.0854 0.1057 -0.4587 -0.0986 0.2362 -0.0813 0.0000 0.2446 -0.3847 0.1678 0.2764 0.1510 -0.3037 -0.2812 0.0843 0.4170 -0.3571 0.1934 -0.1202 -0.2793 0.2059 0.3716 0.3250 0.0974 0.0178 0.0095 0.0959 0.3106 0.0211 -0.1187 -0.0569 0.1701 -0.2585 0.1700 -0.4049 0.1645 -0.0150 0.3059 0.2978 -0.0261 -0.1916 0.0713 -0.2444 0.3458 0.3265 -0.0008 0.2553 0.0402 0.2796 -0.2870 0.0963 0.1659 0.1912 0.1044 0.2379 -0.4193 0.0848 -0.2388 0.1657 -0.1926 0.3807 0.2206 0.0133 -0.4041 0.2007 -0.0121 -0.2438 0.3206 0.2399 0.3693 0.1912 0.0716 0.0000 -0.2832 -0.3243 0.2433 0.2108 -0.0090 -0.0041 -0.0720 -0.5986 0.1026 0.1720 0.1850 0.2298 0.2998 0.0717 0.3467 -0.2297 0.0308 -0.3930 0.3487 0.1618 -0.0982 0.0964 -0.1643 0.3263 -0.3388 0.2190 0.0002 0.0156 -0.2142 0.1914 -0.3479 0.3660 -0.2003 -0.5150 0.0552 -0.0997 0.1349 -0.0888 0.0001 0.3939 -0.2264 0.0961 -0.3747 0.0605 -0.4423 0.2963 0.0523 0.0001 -0.0775 -0.3733 0.0283 -0.3157 0.3214 0.0048 -0.5057 -0.3151 0.0000 0.1524 -0.2742 -0.0041 0.3773 -0.4606 -0.0001 -0.2480 -0.5036 0.0001 0.0848 -0.4510 0.3669 0.1149 0.0124 0.2573 0.0094 0.0242 0.0980 0.2868 0.2828 0.0924 -0.2966 0.2611 0.0303 0.5146 -0.0853 -0.0001 0.4504 -0.1649 0.1849 -0.0001 0.0971 0.0029 -0.1362 -0.5912 0.3978 0.3621 0.2217 -0.0956 -0.3422 0.3812 -0.4632 -0.2733 0.0258 0.0001 -0.5256 -0.2200 -0.0050 0.1830 -0.5737 -0.1770 -0.3297 0.0931 0.0098 0.1433 0.1079 0.1484 0.4787 0.0471 -0.0000 -0.0286 -0.5244 -0.1539 0.0618 -0.0955 -0.0005 0.4601 -0.3448 -0.3738 0.4075 0.0953 0.4173 0.1469 -0.0650 0.0002 0.2681 -0.5167 0.0027 0.5137 -0.3176 0.2182 0.3492 0.3558 -0.0448 -0.4024 0.0119 -0.3849 -0.3539 0.2059 -0.0000 -0.1836 -0.3637 0.1198 0.3172 0.0851 -0.2505 0.1248 0.0026 0.1460 0.1240 -0.3391 -0.4410 -0.3594 0.1299 0.3265 0.4752 0.0850 -0.3454 -0.1874 -0.0019 -0.0011 -0.4168 -0.4101 -0.1738 0.4977 0.0510 -0.3070 -0.3388 0.2430 -0.4559 -0.3533 0.0924 0.0687 -0.0985 0.0119 -0.2784 0.3155 0.1801 -0.0041 0.0297 -0.5998 -0.1680 0.3260 0.0924 0.0001 -0.4017 -0.3256 -0.1858 -0.1739 0.0155 -0.3904 0.3235 0.0903 0.2901 0.0867 -0.0704 0.0060 0.1087 -0.5919 -0.1065 0.1147 0.1575 -0.0002 -0.1930 -0.5239 -0.3742 0.2581 0.0729 0.0692 0.1607 0.0536 -0.0010 0.4074 -0.4195 -0.3351 -0.3622 0.1008 -0.1801 0.3584 0.4060 0.0145 -0.5569 -0.1792 0.0052 0.3320 -0.4965 0.0582 0.3254 -0.2077 0.2553 0.2868 0.1027 0.3575 0.3628 0.2897 -0.2263 -0.2870 0.1331 0.0001 0.2978 -0.1159 0.1802 -0.2658 0.1162 0.4499 -0.3635 0.0988 0.0488 0.2899 0.1364 -0.0001 0.2144 -0.5261 -0.1180 0.3618 0.4366 -0.0367 0.5754 -0.1407 0.0498 0.3627 0.4535 0.2944 0.0611 -0.2315 0.2937 -0.3489 0.2987 -0.0676 -0.1688 -0.0613 0.1307 0.2948 0.2406 -0.3103 -0.3638 0.3290 0.0912 0.5744 -0.0478 -0.2374 -0.1125 -0.2926 0.1936 -0.3480 0.2736 -0.0000 -0.2443 -0.0644 -0.0741 0.5720 -0.0677 0.0000 0.1612 -0.4408 -0.1200 -0.1722 0.0575 0.2267 -0.3348 0.3000 0.0015 -0.5340 -0.2777 0.0677 0.3389 0.3782 0.0000 0.1849 -0.1420 0.3119 0.3627 0.3353 -0.0045 -0.3930 -0.4508 0.4694 -0.3213 0.0609 0.0044 0.5338 -0.2655 0.4576 0.2963 0.0461 -0.3354 0.2363 0.0392 0.1315 0.5817 -0.0122 0.0000 -0.4643 -0.1545 0.0977 -0.4057 0.2126 0.0029 -0.3205 -0.5079 0.2521 0.1316 -0.3486 0.2861 0.0761 -0.3251 -0.1491 0.5731 0.0058 -0.4283 -0.3632 0.1709 0.0950 -0.5300 -0.0144 -0.0489 -0.3639 0.4477 -0.0036 0.4498 -0.3966 -0.1252 0.0116 0.2841 -0.3669 0.4734 0.0839 -0.1176 0.5865 -0.0283 0.0507 0.2813 0.2359 0.1270 0.1160 -0.4796 -0.0000 -0.2755 -0.2263 0.1457 0.0286 0.1558 -0.2711 0.3222 0.1039 -0.2762 -0.3641 0.3741 0.2978 0.5097 0.0720 0.0019 0.0716 -0.6023 -0.0429 -0.3002 0.2809 0.3626 -0.0351 -0.1919 -0.0255 0.5011 -0.0822 0.3587 -0.4608 0.0867 
</DataArray>
<DataArray type="Float32" Name="Velocity" NumberOfComponents="3" format="ascii">
0.0000 0.0000 0.0000 0.0000 0.0000 0.0000 0.0000 0.0000 0.0000 0.0000 0.0000 0.0000 0.0000 0.0000 0.0000 0.0000 0.0000 0.0000 0.0000 0.0000 0.0000 0.0000 0.0000 0.0000 0.0000 0.0000 0.0000 0.0000 0.0000 0.0000 0.0000 0.0000 0.0000 0.0000 0.0000 0.0000 0.0000 0.0000 0.0000 0.0000 0.0000 0.0000 0.0000 0.0000 0.0000 0.0000 0.0000 0.0000 0.0000 0.0000 0.0000 0.0000 0.0000 0.0000 0.0000 0.0000 0.0000 0.0000 0.0000 0.0000 0.0000 0.0000 0.0000 0.0000 0.0000 0.0000 0.0000 0.0000 0.0000 0.0000 0.0000 0.0000 0.0000 0.0000 0.0000 0.0000 0.0000 0.0000 0.0000 0.0000 0.0000 0.0000 0.0000 0.0000 0.0000 0.0000 0.0000 0.0000 0.0000 0.0000 0.0000 0.0000 0.0000 0.0000 0.0000 0.0000 0.0000 0.0000 0.0000 0.0000 0.0000 0.0000 0.0000 0.0000 0.0000 0.0000 0.0000 0.0000 0.0000 0.0000 0.0000 0.0000 0.0000 0.0000 0.0000 0.0000 0.0000 0.0000 0.0000 0.0000 0.0000 0.0000 0.0000 0.0000 0.0000 0.0000 0.0000 0.0000 0.0000 0.0000 0.0000 0.0000 0.0000 0.0000 0.0000 0.0000 0.0000 0.0000 0.0000 0.0000 0.0000 0.0000 0.0000 0.0000 0.0000 0.0000 0.0000 0.0000 0.0000 0.0000 0.0000 0.0000 0.0000 0.0000 0.0000 0.0000 0.0000 0.0000 0.0000 0.0000 0.0000 0.0000 0.0000 0.0000 0.0000 0.0000 0.0000 0.0000 0.0000 0.0000 0.0000 0.0000 0.0000 0.0000 0.0000 0.0000 0.0000 0.0000 0.0000 0.0000 0.0000 0.0000 0.0000 0.0000 0.0000 0.0000 0.0000 0.0000 0.0000 0.0000 0.0000 0.0000 0.0000 0.0000 0.0000 0.0000 0.0000 0.0000 0.0000 0.0000 0.0000 0.0000 0.0000 0.0000 0.0000 0.0000 0.0000 0.0000 0.0000 0.0000 0.0000 0.0000 0.0000 0.0000 0.0000 0.0000 0.0000 0.0000 0.0000 0.0000 0.0000 0.0000 0.0000 0.0000 0.0000 0.0000 0.0000 0.0000 0.0000 0.0000 0.0000 0.0000 0.0000 0.0000 0.0000 0.0000 0.0000 0.0000 0.0000 0.0000 0.0000 0.0000 0.0000 0.0000 0.0000 0.0000 0.0000 0.0000 0.0000 0.0000 0.0000 0.0000 0.0000 0.0000 0.0000 0.0000 0.0000 0.0000 0.0000 0.0000 0.0000 0.0000 0.0000 0.0000 0.0000 0.0000 0.0000 0.0000 0.0000 0.0000 0.0000 0.0000 0.0000 0.0000 0.0000 0.0000 0.0000 0.0000 0.0000 0.0000 0.0000 0.0000 0.0000 0.0000 0.0000 0.0000 0.0000 0.0000 0.0000 0.0000 0.0000 0.0000 0.0000 0.0000 0.0000 0.0000 0.0000 0.0000 0.0000 0.0000 0.0000 0.0000 0.0000 0.0000 0.0000 0.0000 0.0000 0.0000 0.0000 0.0000 0.0000 0.0000 0.0000 0.0000 0.0000 0.0000 0.0000 0.0000 0.0000 0.0000 0.0000 0.0000 0.0000 0.0000 0.0000 0.0000 0.0000 0.0000 0.0000 0.0000 0.0000 0.0000 0.0000 0.0000 0.0000 0.0000 0.0000 0.0000 0.0000 0.0000 0.0000 0.0000 0.0000 0.0000 0.0000 0.0000 0.0000 0.0000 0.0000 0.0000 0.0000 0.0000 0.0000 0.0000 0.0000 0.0000 0.0000 0.0000 0.0000 0.0000 0.0000 0.0000 0.0000 0.0000 0.0000 0.0000 0.0000 0.0000 0.0000 0.0000 0.0000 0.0000 0.0000 0.0000 0.0000 0.0000 0.0000 0.0000 0.0000 0.0000 0.0000 0.0000 0.0000 0.0000 0.0000 0.0000 0.0000 0.0000 0.0000 0.0000 0.0000 0.0000 0.0000 0.0000 0.0000 0.0000 0.0000 0.0000 0.0000 0.0000 0.0000 0.0000 0.0000 0.0000 0.0000 0.0000 0.0000 0.0000 0.0000 0.0000 0.0000 0.0000 0.0000 0.0000 0.0000 0.0000 0.0000 0.0000 0.0000 0.0000 0.0000 0.0000 0.0000 0.0000 0.0000 0.0000 0.0000 0.0000 0.0000 0.0000 0.0000 0.0000 0.0000 0.0000 0.0000 0.0000 0.0000 0.0000 0.0000 0.0000 0.0000 0.0000 0.0000 0.0000 0.0000 0.0000 0.0000 0.0000 0.0000 0.0000 0.0000 0.0000 0.0000 0.0000 0.0000 0.0000 0.0000 0.0000 0.0000 0.0000 0.0000 0.0000 0.0000 0.0000 0.0000 0.0000 0.0000 0.0000 0.0000 0.0000 0.0000 0.0000 0.0000 0.0000 0.0000 0.0000 0.0000 0.0000 0.0000 0.0000 0.0000 0.0000 0.0000 0.0000 0.0000 0.0000 0.0000 0.0000 0.0000 0.0000 0.0000 0.0000 0.0000 0.0000 0.0000 0.0000 0.0000 0.0000 0.0000 0.0000 0.0000 0.0000 0.0000 0.0000 0.0000 0.0000 0.0000 0.0000 0.0000 0.0000 0.0000 0.0000 0.0000 0.0000 0.0000 0.0000 0.0000 0.0000 0.0000 0.0000 0.0000 0.0000 0.0000 0.0000 0.0000 0.0000 0.0000 0.0000 0.0000 0.0000 0.0000 0.0000 0.0000 0.0000 0.0000 0.0000 0.0000 0.0000 0.0000 0.0000 0.0000 0.0000 0.0000 0.0000 0.0000 0.0000 
</DataArray>
<DataArray type="Float32" Name="Radius" NumberOfComponents="1" format="ascii">
0.2836 0.4013 0.1318 0.2016 0.1180 0.3971 0.2083 0.1983 0.2316 0.1830 0.2083 0.3713 0.4684 0.4068 0.0904 0.1829 0.3563 0.0426 0.3370 0.0706 0.0906 0.2770 0.1479 0.2597 0.1799 0.0357 0.2470 0.1111 0.3861 0.1728 0.2415 0.1488 0.1852 0.4082 0.0789 0.3617 0.1983 0.2946 0.1310 0.1777 0.1186 0.0958 0.1461 0.1204 0.1697 0.2266 0.0285 0.2738 0.2145 0.1500 0.0684 0.3210 0.0978 0.3387 0.0725 0.0663 0.3437 0.1516 0.2290 0.0523 0.2101 0.1609 0.0319 0.2682 0.0319 0.0594 0.1467 0.1322 0.2393 0.1851 0.2074 0.1030 0.1359 0.2829 0.0245 0.0362 0.0912 0.0360 0.0578 0.0281 0.2335 0.3751 0.1181 0.0882 0.3214 0.0469 0.0591 0.0801 0.0418 0.0249 0.0686 0.2172 0.0552 0.1891 0.2694 0.2488 0.1514 0.0359 0.0394 0.1545 0.0395 0.0915 0.0982 0.0338 0.4255 0.1590 0.0297 0.2410 0.0967 0.2990 0.0949 0.2044 0.0293 0.2959 0.0623 0.1153 0.4013 0.0394 0.1161 0.0410 0.0430 0.0311 0.1806 0.2180 0.0308 0.2285 0.2693 0.2762 0.0354 0.2923 0.0539 0.0326 0.0331 0.0287 0.1362 0.0691 0.3517 0.2116 0.0355 0.0407 0.1352 0.1315 0.3295 0.0442 0.1371 0.3589 0.1107 0.0280 0.0997 0.3400 0.0311 0.0302 0.0244 0.0339 0.0381 0.1598 0.0273 0.1295 0.1480 0.0285 0.0812 0.0806 0.0313 0.0323 0.0845 0.0343 0.0294 0.1745 0.0162 0.0255 0.2424 0.0492 0.2341 0.2743 0.1852 0.0231 0.0286 0.0249 0.1995 0.0970 0.1169 0.0313 
</DataArray>
</PointData>
<CellData/>
</Piece>
</UnstructuredGrid>
</VTKFile>
