<?xml version="1.0"?>
<VTKFile type="UnstructuredGrid" version="0.1" byte_order="LittleEndian">
 <UnstructuredGrid>
  <Piece NumberOfPoints="182" NumberOfCells="0">
   <Cells>
    <DataArray type="Int32" name="connectivity" format="ascii">
       0
    </DataArray>
    <DataArray type="Float32" name="offset" format="ascii">
       0
    </DataArray>
    <DataArray type="UInt8" name="types" format="ascii">
       1
    </DataArray>
   </Cells>
   <Points>
<DataArray type="Float32" NumberOfComponents="3" format="ascii">
0.0015 -0.1559 -0.1720 -0.1387 -0.1070 0.0537 0.1771 -0.3058 0.1245 0.2718 0.0697 -0.2767 -0.4218 0.2066 0.1718 0.1104 -0.0380 -0.0710 -0.3325 -0.0854 -0.1827 -0.4087 -0.1102 -0.0509 -0.0273 -0.2760 -0.0646 -0.4147 -0.1335 0.0489 -0.1875 -0.1045 -0.2824 -0.0585 -0.0936 -0.1183 -0.0437 0.0210 -0.0139 -0.0934 -0.0240 -0.1159 -0.2970 -0.0764 -0.4246 0.1762 -0.1868 0.2072 0.1551 0.1614 0.0659 0.0808 0.2107 -0.4456 0.2116 0.1243 0.1316 -0.0971 -0.4682 -0.0126 0.0811 0.1090 -0.4587 0.2043 0.1542 -0.0813 0.2369 0.0608 -0.3847 0.3094 -0.0938 0.1510 -0.3479 0.2242 0.0843 -0.2421 -0.4927 0.1934 -0.3004 0.0470 0.2059 0.4072 -0.2791 0.0974 0.0136 -0.0149 0.0959 0.0977 -0.2956 -0.1187 0.1506 0.0974 -0.2585 -0.3499 -0.2653 0.1645 0.2926 0.0906 0.2978 -0.1921 -0.0223 0.0713 0.2741 0.3227 0.3265 0.2471 0.0643 0.0402 -0.2084 -0.3422 0.0963 0.2264 -0.1131 0.1044 -0.3470 -0.3347 0.0848 0.1011 0.2725 -0.1926 0.3083 -0.3139 0.0133 0.0939 0.4414 -0.0121 0.2499 0.3158 0.2399 0.2770 -0.3101 0.0716 -0.2743 -0.0704 -0.3243 0.2647 -0.1832 -0.0090 -0.0707 -0.0140 -0.5986 0.1922 -0.0566 0.1850 0.3476 -0.1480 0.0717 -0.1363 -0.3929 0.0308 0.2400 0.4674 0.1618 0.0690 0.1191 -0.1643 -0.2471 -0.4003 0.2190 0.0152 0.0037 -0.2142 -0.2894 -0.2719 0.3660 -0.5486 0.0660 0.0552 0.1059 0.1301 -0.0888 0.3815 0.0978 -0.2264 -0.3390 -0.1863 0.0605 0.1770 0.5021 0.0523 -0.0751 -0.0194 -0.3733 -0.2987 -0.1059 0.3214 -0.4886 -0.1304 -0.3151 0.1476 0.0379 -0.2742 0.3645 0.0978 -0.4606 -0.2403 -0.0616 -0.5036 0.0822 0.0210 -0.4510 0.2026 -0.3268 0.0124 0.0731 -0.2469 0.0242 0.3021 -0.0236 0.2828 -0.2643 -0.1633 0.2611 0.5060 0.0986 -0.0853 0.4362 0.1121 -0.1649 0.0459 -0.1791 0.0971 -0.1312 -0.0367 -0.5912 0.4496 -0.2952 0.2217 -0.3553 0.0075 0.3812 -0.3799 0.3807 0.0258 -0.5090 -0.1308 -0.2200 0.1760 0.0504 -0.5737 -0.3634 0.0895 0.0931 0.1413 0.0262 0.1079 0.5006 -0.0247 0.0471 -0.0277 -0.0071 -0.5244 0.0216 0.1644 -0.0955 0.4455 0.1149 -0.3448 0.3018 0.4634 0.0953 0.2461 -0.3677 -0.0650 0.2597 0.0664 -0.5167 0.4983 0.1251 -0.3176 0.3924 -0.1245 0.3558 -0.4009 -0.0567 0.0119 -0.4385 0.2848 0.2059 -0.1778 -0.0456 -0.3637 0.3370 -0.0371 0.0851 0.0585 0.2737 0.0026 0.1564 -0.1106 -0.3391 -0.4578 0.3378 0.1299 0.5415 -0.1981 0.0850 -0.2674 0.2879 -0.0019 -0.4040 -0.1026 -0.4101 0.4388 0.2922 0.0510 -0.4045 0.2131 0.2430 -0.4556 0.3537 0.0924 -0.0783 -0.0910 0.0119 0.2363 0.3481 0.1801 0.0277 0.0114 -0.5998 0.2740 0.2438 0.0924 -0.3890 -0.1000 -0.3256 -0.2146 0.1368 0.0155 0.2162 0.4586 0.0903 0.1561 -0.2594 -0.0704 0.1068 0.0212 -0.5919 0.0846 0.1317 0.1575 -0.1869 -0.0478 -0.5239 0.1570 0.4266 0.0729 0.1729 -0.0270 0.0536 0.3943 0.1023 -0.4195 -0.4342 0.2345 0.1008 0.3024 0.2636 0.4060 -0.5358 -0.1526 -0.1792 0.3228 0.0775 -0.4965 0.3297 0.0245 -0.2077 0.3413 -0.1759 0.1027 0.4403 -0.2561 0.2897 -0.3342 0.1478 0.1331 0.2885 0.0740 -0.1159 -0.2126 -0.2406 0.1162 -0.2402 -0.5261 0.0988 0.2929 0.0248 0.1364 0.2076 0.0534 -0.5261 0.3211 0.2043 0.4366 0.5482 0.1787 -0.1407 0.3637 0.0419 0.4535 0.1324 -0.2700 -0.2315 -0.2649 -0.3713 0.2987 -0.1803 0.0235 -0.0613 0.3180 -0.0533 0.2406 -0.4295 0.2100 0.3290 0.5790 0.0545 -0.0478 -0.1680 0.2020 -0.2926 -0.2889 -0.2740 0.2736 -0.2366 -0.0607 -0.0644 0.5356 0.2140 -0.0677 0.1561 0.0400 -0.4408 -0.1966 0.0734 0.0575 -0.2679 -0.3028 0.3000 -0.5169 -0.1342 -0.2777 0.3451 0.0187 0.3782 0.1791 0.0460 -0.1420 0.4288 -0.2119 0.3353 -0.3817 -0.0934 -0.4508 -0.1945 -0.5346 0.0609 0.5181 0.1285 -0.2655 0.4008 -0.3695 0.0461 0.1455 0.3836 0.0392 0.5962 0.0173 -0.0122 -0.4498 -0.1155 -0.1545 -0.3686 -0.1956 0.2126 -0.3097 -0.0825 -0.5079 0.1902 -0.2115 -0.3486 0.1448 -0.2581 -0.3251 0.5180 0.2870 0.0058 -0.4583 0.3245 0.1709 -0.4898 -0.2238 -0.0144 -0.3646 -0.0432 0.4477 0.4348 0.1153 -0.3966 -0.0199 0.1242 0.2841 0.3673 0.4731 0.0839 0.5389 0.2598 -0.0283 0.2851 0.0209 0.2359 0.1440 -0.0941 -0.4796 -0.2669 -0.0685 -0.2263 0.0639 -0.1340 0.1558 0.2447 0.3427 0.1039 -0.4213 0.1770 0.3741 0.5678 -0.1616 0.0720 0.0698 0.0159 -0.6023 -0.3014 -0.0331 0.2809 0.0562 -0.3599 -0.1919 0.4790 0.1493 -0.0822 -0.3571 -0.4620 0.0867 
</DataArray>
    </Points>
    <PointData>
<DataArray type="Float32" Name="Position" NumberOfComponents="3" format="ascii">
0.0015 -0.1559 -0.1720 -0.1387 -0.1070 0.0537 0.1771 -0.3058 0.1245 0.2718 0.0697 -0.2767 -0.4218 0.2066 0.1718 0.1104 -0.0380 -0.0710 -0.3325 -0.0854 -0.1827 -0.4087 -0.1102 -0.0509 -0.0273 -0.2760 -0.0646 -0.4147 -0.1335 0.0489 -0.1875 -0.1045 -0.2824 -0.0585 -0.0936 -0.1183 -0.0437 0.0210 -0.0139 -0.0934 -0.0240 -0.1159 -0.2970 -0.0764 -0.4246 0.1762 -0.1868 0.2072 0.1551 0.1614 0.0659 0.0808 0.2107 -0.4456 0.2116 0.1243 0.1316 -0.0971 -0.4682 -0.0126 0.0811 0.1090 -0.4587 0.2043 0.1542 -0.0813 0.2369 0.0608 -0.3847 0.3094 -0.0938 0.1510 -0.3479 0.2242 0.0843 -0.2421 -0.4927 0.1934 -0.3004 0.0470 0.2059 0.4072 -0.2791 0.0974 0.0136 -0.0149 0.0959 0.0977 -0.2956 -0.1187 0.1506 0.0974 -0.2585 -0.3499 -0.2653 0.1645 0.2926 0.0906 0.2978 -0.1921 -0.0223 0.0713 0.2741 0.3227 0.3265 0.2471 0.0643 0.0402 -0.2084 -0.3422 0.0963 0.2264 -0.1131 0.1044 -0.3470 -0.3347 0.0848 0.1011 0.2725 -0.1926 0.3083 -0.3139 0.0133 0.0939 0.4414 -0.0121 0.2499 0.3158 0.2399 0.2770 -0.3101 0.0716 -0.2743 -0.0704 -0.3243 0.2647 -0.1832 -0.0090 -0.0707 -0.0140 -0.5986 0.1922 -0.0566 0.1850 0.3476 -0.1480 0.0717 -0.1363 -0.3929 0.0308 0.2400 0.4674 0.1618 0.0690 0.1191 -0.1643 -0.2471 -0.4003 0.2190 0.0152 0.0037 -0.2142 -0.2894 -0.2719 0.3660 -0.5486 0.0660 0.0552 0.1059 0.1301 -0.0888 0.3815 0.0978 -0.2264 -0.3390 -0.1863 0.0605 0.1770 0.5021 0.0523 -0.0751 -0.0194 -0.3733 -0.2987 -0.1059 0.3214 -0.4886 -0.1304 -0.3151 0.1476 0.0379 -0.2742 0.3645 0.0978 -0.4606 -0.2403 -0.0616 -0.5036 0.0822 0.0210 -0.4510 0.2026 -0.3268 0.0124 0.0731 -0.2469 0.0242 0.3021 -0.0236 0.2828 -0.2643 -0.1633 0.2611 0.5060 0.0986 -0.0853 0.4362 0.1121 -0.1649 0.0459 -0.1791 0.0971 -0.1312 -0.0367 -0.5912 0.4496 -0.2952 0.2217 -0.3553 0.0075 0.3812 -0.3799 0.3807 0.0258 -0.5090 -0.1308 -0.2200 0.1760 0.0504 -0.5737 -0.3634 0.0895 0.0931 0.1413 0.0262 0.1079 0.5006 -0.0247 0.0471 -0.0277 -0.0071 -0.5244 0.0216 0.1644 -0.0955 0.4455 0.1149 -0.3448 0.3018 0.4634 0.0953 0.2461 -0.3677 -0.0650 0.2597 0.0664 -0.5167 0.4983 0.1251 -0.3176 0.3924 -0.1245 0.3558 -0.4009 -0.0567 0.0119 -0.4385 0.2848 0.2059 -0.1778 -0.0456 -0.3637 0.3370 -0.0371 0.0851 0.0585 0.2737 0.0026 0.1564 -0.1106 -0.3391 -0.4578 0.3378 0.1299 0.5415 -0.1981 0.0850 -0.2674 0.2879 -0.0019 -0.4040 -0.1026 -0.4101 0.4388 0.2922 0.0510 -0.4045 0.2131 0.2430 -0.4556 0.3537 0.0924 -0.0783 -0.0910 0.0119 0.2363 0.3481 0.1801 0.0277 0.0114 -0.5998 0.2740 0.2438 0.0924 -0.3890 -0.1000 -0.3256 -0.2146 0.1368 0.0155 0.2162 0.4586 0.0903 0.1561 -0.2594 -0.0704 0.1068 0.0212 -0.5919 0.0846 0.1317 0.1575 -0.1869 -0.0478 -0.5239 0.1570 0.4266 0.0729 0.1729 -0.0270 0.0536 0.3943 0.1023 -0.4195 -0.4342 0.2345 0.1008 0.3024 0.2636 0.4060 -0.5358 -0.1526 -0.1792 0.3228 0.0775 -0.4965 0.3297 0.0245 -0.2077 0.3413 -0.1759 0.1027 0.4403 -0.2561 0.2897 -0.3342 0.1478 0.1331 0.2885 0.0740 -0.1159 -0.2126 -0.2406 0.1162 -0.2402 -0.5261 0.0988 0.2929 0.0248 0.1364 0.2076 0.0534 -0.5261 0.3211 0.2043 0.4366 0.5482 0.1787 -0.1407 0.3637 0.0419 0.4535 0.1324 -0.2700 -0.2315 -0.2649 -0.3713 0.2987 -0.1803 0.0235 -0.0613 0.3180 -0.0533 0.2406 -0.4295 0.2100 0.3290 0.5790 0.0545 -0.0478 -0.1680 0.2020 -0.2926 -0.2889 -0.2740 0.2736 -0.2366 -0.0607 -0.0644 0.5356 0.2140 -0.0677 0.1561 0.0400 -0.4408 -0.1966 0.0734 0.0575 -0.2679 -0.3028 0.3000 -0.5169 -0.1342 -0.2777 0.3451 0.0187 0.3782 0.1791 0.0460 -0.1420 0.4288 -0.2119 0.3353 -0.3817 -0.0934 -0.4508 -0.1945 -0.5346 0.0609 0.5181 0.1285 -0.2655 0.4008 -0.3695 0.0461 0.1455 0.3836 0.0392 0.5962 0.0173 -0.0122 -0.4498 -0.1155 -0.1545 -0.3686 -0.1956 0.2126 -0.3097 -0.0825 -0.5079 0.1902 -0.2115 -0.3486 0.1448 -0.2581 -0.3251 0.5180 0.2870 0.0058 -0.4583 0.3245 0.1709 -0.4898 -0.2238 -0.0144 -0.3646 -0.0432 0.4477 0.4348 0.1153 -0.3966 -0.0199 0.1242 0.2841 0.3673 0.4731 0.0839 0.5389 0.2598 -0.0283 0.2851 0.0209 0.2359 0.1440 -0.0941 -0.4796 -0.2669 -0.0685 -0.2263 0.0639 -0.1340 0.1558 0.2447 0.3427 0.1039 -0.4213 0.1770 0.3741 0.5678 -0.1616 0.0720 0.0698 0.0159 -0.6023 -0.3014 -0.0331 0.2809 0.0562 -0.3599 -0.1919 0.4790 0.1493 -0.0822 -0.3571 -0.4620 0.0867 
</DataArray>
<DataArray type="Float32" Name="Velocity" NumberOfComponents="3" format="ascii">
0.0000 0.0000 0.0000 0.0000 0.0000 0.0000 0.0000 0.0000 0.0000 0.0000 0.0000 0.0000 0.0000 0.0000 0.0000 0.0000 0.0000 0.0000 0.0000 0.0000 0.0000 0.0000 0.0000 0.0000 0.0000 0.0000 0.0000 0.0000 0.0000 0.0000 0.0000 0.0000 0.0000 0.0000 0.0000 0.0000 0.0000 0.0000 0.0000 0.0000 0.0000 0.0000 0.0000 0.0000 0.0000 0.0000 0.0000 0.0000 0.0000 0.0000 0.0000 0.0000 0.0000 0.0000 0.0000 0.0000 0.0000 0.0000 0.0000 0.0000 0.0000 0.0000 0.0000 0.0000 0.0000 0.0000 0.0000 0.0000 0.0000 0.0000 0.0000 0.0000 0.0000 0.0000 0.0000 0.0000 0.0000 0.0000 0.0000 0.0000 0.0000 0.0000 0.0000 0.0000 0.0000 0.0000 0.0000 0.0000 0.0000 0.0000 0.0000 0.0000 0.0000 0.0000 0.0000 0.0000 0.0000 0.0000 0.0000 0.0000 0.0000 0.0000 0.0000 0.0000 0.0000 0.0000 0.0000 0.0000 0.0000 0.0000 0.0000 0.0000 0.0000 0.0000 0.0000 0.0000 0.0000 0.0000 0.0000 0.0000 0.0000 0.0000 0.0000 0.0000 0.0000 0.0000 0.0000 0.0000 0.0000 0.0000 0.0000 0.0000 0.0000 0.0000 0.0000 0.0000 0.0000 0.0000 0.0000 0.0000 0.0000 0.0000 0.0000 0.0000 0.0000 0.0000 0.0000 0.0000 0.0000 0.0000 0.0000 0.0000 0.0000 0.0000 0.0000 0.0000 0.0000 0.0000 0.0000 0.0000 0.0000 0.0000 0.0000 0.0000 0.0000 0.0000 0.0000 0.0000 0.0000 0.0000 0.0000 0.0000 0.0000 0.0000 0.0000 0.0000 0.0000 0.0000 0.0000 0.0000 0.0000 0.0000 0.0000 0.0000 0.0000 0.0000 0.0000 0.0000 0.0000 0.0000 0.0000 0.0000 0.0000 0.0000 0.0000 0.0000 0.0000 0.0000 0.0000 0.0000 0.0000 0.0000 0.0000 0.0000 0.0000 0.0000 0.0000 0.0000 0.0000 0.0000 0.0000 0.0000 0.0000 0.0000 0.0000 0.0000 0.0000 0.0000 0.0000 0.0000 0.0000 0.0000 0.0000 0.0000 0.0000 0.0000 0.0000 0.0000 0.0000 0.0000 0.0000 0.0000 0.0000 0.0000 0.0000 0.0000 0.0000 0.0000 0.0000 0.0000 0.0000 0.0000 0.0000 0.0000 0.0000 0.0000 0.0000 0.0000 0.0000 0.0000 0.0000 0.0000 0.0000 0.0000 0.0000 0.0000 0.0000 0.0000 0.0000 0.0000 0.0000 0.0000 0.0000 0.0000 0.0000 0.0000 0.0000 0.0000 0.0000 0.0000 0.0000 0.0000 0.0000 0.0000 0.0000 0.0000 0.0000 0.0000 0.0000 0.0000 0.0000 0.0000 0.0000 0.0000 0.0000 0.0000 0.0000 0.0000 0.0000 0.0000 0.0000 0.0000 0.0000 0.0000 0.0000 0.0000 0.0000 0.0000 0.0000 0.0000 0.0000 0.0000 0.0000 0.0000 0.0000 0.0000 0.0000 0.0000 0.0000 0.0000 0.0000 0.0000 0.0000 0.0000 0.0000 0.0000 0.0000 0.0000 0.0000 0.0000 0.0000 0.0000 0.0000 0.0000 0.0000 0.0000 0.0000 0.0000 0.0000 0.0000 0.0000 0.0000 0.0000 0.0000 0.0000 0.0000 0.0000 0.0000 0.0000 0.0000 0.0000 0.0000 0.0000 0.0000 0.0000 0.0000 0.0000 0.0000 0.0000 0.0000 0.0000 0.0000 0.0000 0.0000 0.0000 0.0000 0.0000 0.0000 0.0000 0.0000 0.0000 0.0000 0.0000 0.0000 0.0000 0.0000 0.0000 0.0000 0.0000 0.0000 0.0000 0.0000 0.0000 0.0000 0.0000 0.0000 0.0000 0.0000 0.0000 0.0000 0.0000 0.0000 0.0000 0.0000 0.0000 0.0000 0.0000 0.0000 0.0000 0.0000 0.0000 0.0000 0.0000 0.0000 0.0000 0.0000 0.0000 0.0000 0.0000 0.0000 0.0000 0.0000 0.0000 0.0000 0.0000 0.0000 0.0000 0.0000 0.0000 0.0000 0.0000 0.0000 0.0000 0.0000 0.0000 0.0000 0.0000 0.0000 0.0000 0.0000 0.0000 0.0000 0.0000 0.0000 0.0000 0.0000 0.0000 0.0000 0.0000 0.0000 0.0000 0.0000 0.0000 0.0000 0.0000 0.0000 0.0000 0.0000 0.0000 0.0000 0.0000 0.0000 0.0000 0.0000 0.0000 0.0000 0.0000 0.0000 0.0000 0.0000 0.0000 0.0000 0.0000 0.0000 0.0000 0.0000 0.0000 0.0000 0.0000 0.0000 0.0000 0.0000 0.0000 0.0000 0.0000 0.0000 0.0000 0.0000 0.0000 0.0000 0.0000 0.0000 0.0000 0.0000 0.0000 0.0000 0.0000 0.0000 0.0000 0.0000 0.0000 0.0000 0.0000 0.0000 0.0000 0.0000 0.0000 0.0000 0.0000 0.0000 0.0000 0.0000 0.0000 0.0000 0.0000 0.0000 0.0000 0.0000 0.0000 0.0000 0.0000 0.0000 0.0000 0.0000 0.0000 0.0000 0.0000 0.0000 0.0000 0.0000 0.0000 0.0000 0.0000 0.0000 0.0000 0.0000 0.0000 0.0000 0.0000 0.0000 0.0000 0.0000 0.0000 0.0000 0.0000 0.0000 0.0000 0.0000 0.0000 0.0000 0.0000 0.0000 0.0000 0.0000 0.0000 0.0000 0.0000 0.0000 0.0000 0.0000 0.0000 0.0000 0.0000 0.0000 0.0000 0.0000 
</DataArray>
<DataArray type="Float32" Name="Radius" NumberOfComponents="1" format="ascii">
0.2836 0.4013 0.1318 0.2016 0.1180 0.3971 0.2083 0.1983 0.2316 0.1830 0.2083 0.3713 0.4684 0.4068 0.0904 0.1829 0.3563 0.0426 0.3370 0.0706 0.0906 0.2770 0.1479 0.2597 0.1799 0.0357 0.2470 0.1111 0.3861 0.1728 0.2415 0.1488 0.1852 0.4082 0.0789 0.3617 0.1983 0.2946 0.1310 0.1777 0.1186 0.0958 0.1461 0.1204 0.1697 0.2266 0.0285 0.2738 0.2145 0.1500 0.0684 0.3210 0.0978 0.3387 0.0725 0.0663 0.3437 0.1516 0.2290 0.0523 0.2101 0.1609 0.0319 0.2682 0.0319 0.0594 0.1467 0.1322 0.2393 0.1851 0.2074 0.1030 0.1359 0.2829 0.0245 0.0362 0.0912 0.0360 0.0578 0.0281 0.2335 0.3751 0.1181 0.0882 0.3214 0.0469 0.0591 0.0801 0.0418 0.0249 0.0686 0.2172 0.0552 0.1891 0.2694 0.2488 0.1514 0.0359 0.0394 0.1545 0.0395 0.0915 0.0982 0.0338 0.4255 0.1590 0.0297 0.2410 0.0967 0.2990 0.0949 0.2044 0.0293 0.2959 0.0623 0.1153 0.4013 0.0394 0.1161 0.0410 0.0430 0.0311 0.1806 0.2180 0.0308 0.2285 0.2693 0.2762 0.0354 0.2923 0.0539 0.0326 0.0331 0.0287 0.1362 0.0691 0.3517 0.2116 0.0355 0.0407 0.1352 0.1315 0.3295 0.0442 0.1371 0.3589 0.1107 0.0280 0.0997 0.3400 0.0311 0.0302 0.0244 0.0339 0.0381 0.1598 0.0273 0.1295 0.1480 0.0285 0.0812 0.0806 0.0313 0.0323 0.0845 0.0343 0.0294 0.1745 0.0162 0.0255 0.2424 0.0492 0.2341 0.2743 0.1852 0.0231 0.0286 0.0249 0.1995 0.0970 0.1169 0.0313 
</DataArray>
</PointData>
<CellData/>
</Piece>
</UnstructuredGrid>
</VTKFile>
