<?xml version="1.0"?>
<VTKFile type="UnstructuredGrid" version="0.1" byte_order="LittleEndian">
 <UnstructuredGrid>
  <Piece NumberOfPoints="182" NumberOfCells="0">
   <Cells>
    <DataArray type="Int32" name="connectivity" format="ascii">
       0
    </DataArray>
    <DataArray type="Float32" name="offset" format="ascii">
       0
    </DataArray>
    <DataArray type="UInt8" name="types" format="ascii">
       1
    </DataArray>
   </Cells>
   <Points>
<DataArray type="Float32" NumberOfComponents="3" format="ascii">
0.1545 0.0210 -0.1720 0.1235 -0.1241 0.0537 0.2811 0.2141 0.1245 -0.1033 0.2609 -0.2767 -0.1521 -0.4444 0.1718 0.0239 0.1143 -0.0710 0.1264 -0.3192 -0.1827 0.1606 -0.3916 -0.0509 0.2772 0.0075 -0.0646 0.1845 -0.3947 0.0489 0.1272 -0.1729 -0.2824 0.1002 -0.0463 -0.1183 -0.0154 -0.0460 -0.0139 0.0355 -0.0897 -0.1159 0.1130 -0.2851 -0.4246 0.1633 0.1983 0.2072 -0.1795 0.1336 0.0659 -0.2192 0.0537 -0.4456 -0.1498 0.1944 0.1316 0.4767 -0.0376 -0.0126 -0.1183 0.0668 -0.4587 -0.1786 0.1834 -0.0813 -0.0900 0.2274 -0.3847 0.0542 0.3187 0.1510 -0.1788 -0.3733 0.0843 0.5192 -0.1785 0.1934 -0.0090 -0.3039 0.2059 0.2259 0.4390 0.0974 0.0130 0.0154 0.0959 0.2810 0.1340 -0.1187 -0.1155 0.1372 -0.2585 0.3071 -0.3139 0.1645 -0.1265 0.2789 0.2978 0.0462 -0.1877 0.0713 -0.3545 0.2315 0.3265 -0.0948 0.2371 0.0402 0.3656 -0.1639 0.0963 0.0839 0.2388 0.1044 0.3755 -0.3023 0.0848 -0.2831 0.0662 -0.1926 0.2727 0.3452 0.0133 -0.4496 0.0378 -0.0121 -0.3447 0.2084 0.2399 0.2730 0.3137 0.0716 0.1043 -0.2633 -0.3243 0.1486 0.2856 -0.0090 0.0227 -0.0684 -0.5986 0.0321 0.1977 0.1850 0.1033 0.3634 0.0717 0.4069 -0.0859 0.0308 -0.4938 0.1796 0.1618 -0.1268 0.0535 -0.1643 0.4281 -0.1949 0.2190 -0.0055 0.0146 -0.2142 0.3060 -0.2530 0.3660 0.0033 -0.5526 0.0552 -0.1424 0.0887 -0.0888 -0.1449 0.3663 -0.2264 0.2273 -0.3130 0.0605 -0.5203 0.1127 0.0523 0.0286 -0.0720 -0.3733 0.1425 -0.2831 0.3214 0.1906 -0.4684 -0.3151 -0.0561 0.1417 -0.2742 -0.1427 0.3493 -0.4606 0.0912 -0.2307 -0.5036 -0.0311 0.0789 -0.4510 0.2988 0.2419 0.0124 0.2358 0.1035 0.0242 -0.0145 0.3027 0.2828 0.1951 -0.2418 0.2611 -0.1613 0.4896 -0.0853 -0.1659 0.4187 -0.1649 0.1719 0.0680 0.0971 0.0529 -0.1256 -0.5912 0.2366 0.4831 0.2217 0.0371 -0.3534 0.3812 -0.3301 -0.4246 0.0258 0.1936 -0.4886 -0.2200 -0.0720 0.1683 -0.5737 -0.0432 -0.3717 0.0931 -0.0437 0.1369 0.1079 -0.0382 0.4997 0.0471 0.0105 -0.0266 -0.5244 -0.1659 0.0008 -0.0955 -0.1698 0.4276 -0.3448 -0.4976 0.2413 0.0953 0.3340 0.2902 -0.0650 -0.0985 0.2494 -0.5167 -0.1866 0.4787 -0.3176 0.0743 0.4049 0.3558 0.1065 -0.3906 0.0119 -0.2276 -0.4707 0.2059 0.0676 -0.1707 -0.3637 -0.0054 0.3390 0.0851 -0.2788 0.0238 0.0026 0.0901 0.1690 -0.3391 -0.2778 -0.4965 0.1299 0.1287 0.5621 0.0850 -0.2521 -0.3014 -0.0019 0.1524 -0.3880 -0.4101 -0.3449 0.3988 0.0510 -0.1608 -0.4280 0.2430 -0.2938 -0.4963 0.0924 0.1001 -0.0663 0.0119 -0.3750 0.1908 0.1801 -0.0148 0.0261 -0.5998 -0.2762 0.2413 0.0924 0.1480 -0.3734 -0.3256 -0.1088 -0.2301 0.0155 -0.4821 0.1570 0.0903 0.2378 0.1874 -0.0704 -0.0344 0.1033 -0.5919 -0.1412 0.0674 0.1575 0.0709 -0.1795 -0.5239 -0.4429 0.1022 0.0729 0.0051 0.1749 0.0536 -0.1509 0.3784 -0.4195 -0.1782 -0.4601 0.1008 -0.2994 0.2669 0.4060 0.2185 -0.5124 -0.1792 -0.1173 0.3106 -0.4965 -0.0657 0.3240 -0.2077 0.1318 0.3606 0.1027 0.1988 0.4690 0.2897 -0.1048 -0.3501 0.1331 -0.1095 0.2770 -0.1159 0.2654 -0.1808 0.1162 0.5521 -0.1723 0.0988 -0.0613 0.2875 0.1364 -0.0790 0.1993 -0.5261 -0.2429 0.2929 0.4366 -0.2460 0.5215 -0.1407 -0.0872 0.3556 0.4535 0.2513 0.1652 -0.2315 0.4015 -0.2163 0.2987 -0.0007 -0.1819 -0.0613 0.0130 0.3222 0.2406 -0.1546 -0.4525 0.3290 -0.1266 0.5676 -0.0478 -0.1793 -0.1920 -0.2926 0.3081 -0.2523 0.2736 0.0899 -0.2272 -0.0644 -0.2794 0.5045 -0.0677 -0.0593 0.1499 -0.4408 -0.0481 -0.2043 0.0575 0.3340 -0.2278 0.3000 0.1980 -0.4960 -0.2777 -0.0618 0.3400 0.3782 -0.0680 0.1719 -0.1420 0.1565 0.4520 0.3353 0.1405 -0.3670 -0.4508 0.5548 -0.1260 0.0609 -0.1924 0.4979 -0.2655 0.3164 0.4440 0.0461 -0.3988 0.0963 0.0392 -0.0919 0.5893 -0.0122 0.1709 -0.4317 -0.1545 0.2402 -0.3412 0.2126 0.1207 -0.2969 -0.5079 0.1860 0.2152 -0.3486 0.2380 0.1760 -0.3251 -0.3496 0.4779 0.0058 -0.2645 -0.4954 0.1709 0.2834 -0.4579 -0.0144 0.0885 -0.3563 0.4477 -0.1689 0.4169 -0.3966 -0.1207 -0.0353 0.2841 -0.5154 0.3051 0.0839 -0.3253 0.5021 -0.0283 -0.0564 0.2802 0.2359 0.0754 0.1546 -0.4796 0.1014 -0.2562 -0.2263 0.1250 0.0802 0.1558 -0.3706 0.1998 0.1039 -0.1228 -0.4402 0.3741 0.0892 0.5835 0.0720 -0.0245 0.0673 -0.6023 0.0706 -0.2949 0.2809 0.3500 0.1008 -0.1919 -0.2081 0.4565 -0.0822 0.5031 -0.2964 0.0867 
</DataArray>
    </Points>
    <PointData>
<DataArray type="Float32" Name="Position" NumberOfComponents="3" format="ascii">
0.1545 0.0210 -0.1720 0.1235 -0.1241 0.0537 0.2811 0.2141 0.1245 -0.1033 0.2609 -0.2767 -0.1521 -0.4444 0.1718 0.0239 0.1143 -0.0710 0.1264 -0.3192 -0.1827 0.1606 -0.3916 -0.0509 0.2772 0.0075 -0.0646 0.1845 -0.3947 0.0489 0.1272 -0.1729 -0.2824 0.1002 -0.0463 -0.1183 -0.0154 -0.0460 -0.0139 0.0355 -0.0897 -0.1159 0.1130 -0.2851 -0.4246 0.1633 0.1983 0.2072 -0.1795 0.1336 0.0659 -0.2192 0.0537 -0.4456 -0.1498 0.1944 0.1316 0.4767 -0.0376 -0.0126 -0.1183 0.0668 -0.4587 -0.1786 0.1834 -0.0813 -0.0900 0.2274 -0.3847 0.0542 0.3187 0.1510 -0.1788 -0.3733 0.0843 0.5192 -0.1785 0.1934 -0.0090 -0.3039 0.2059 0.2259 0.4390 0.0974 0.0130 0.0154 0.0959 0.2810 0.1340 -0.1187 -0.1155 0.1372 -0.2585 0.3071 -0.3139 0.1645 -0.1265 0.2789 0.2978 0.0462 -0.1877 0.0713 -0.3545 0.2315 0.3265 -0.0948 0.2371 0.0402 0.3656 -0.1639 0.0963 0.0839 0.2388 0.1044 0.3755 -0.3023 0.0848 -0.2831 0.0662 -0.1926 0.2727 0.3452 0.0133 -0.4496 0.0378 -0.0121 -0.3447 0.2084 0.2399 0.2730 0.3137 0.0716 0.1043 -0.2633 -0.3243 0.1486 0.2856 -0.0090 0.0227 -0.0684 -0.5986 0.0321 0.1977 0.1850 0.1033 0.3634 0.0717 0.4069 -0.0859 0.0308 -0.4938 0.1796 0.1618 -0.1268 0.0535 -0.1643 0.4281 -0.1949 0.2190 -0.0055 0.0146 -0.2142 0.3060 -0.2530 0.3660 0.0033 -0.5526 0.0552 -0.1424 0.0887 -0.0888 -0.1449 0.3663 -0.2264 0.2273 -0.3130 0.0605 -0.5203 0.1127 0.0523 0.0286 -0.0720 -0.3733 0.1425 -0.2831 0.3214 0.1906 -0.4684 -0.3151 -0.0561 0.1417 -0.2742 -0.1427 0.3493 -0.4606 0.0912 -0.2307 -0.5036 -0.0311 0.0789 -0.4510 0.2988 0.2419 0.0124 0.2358 0.1035 0.0242 -0.0145 0.3027 0.2828 0.1951 -0.2418 0.2611 -0.1613 0.4896 -0.0853 -0.1659 0.4187 -0.1649 0.1719 0.0680 0.0971 0.0529 -0.1256 -0.5912 0.2366 0.4831 0.2217 0.0371 -0.3534 0.3812 -0.3301 -0.4246 0.0258 0.1936 -0.4886 -0.2200 -0.0720 0.1683 -0.5737 -0.0432 -0.3717 0.0931 -0.0437 0.1369 0.1079 -0.0382 0.4997 0.0471 0.0105 -0.0266 -0.5244 -0.1659 0.0008 -0.0955 -0.1698 0.4276 -0.3448 -0.4976 0.2413 0.0953 0.3340 0.2902 -0.0650 -0.0985 0.2494 -0.5167 -0.1866 0.4787 -0.3176 0.0743 0.4049 0.3558 0.1065 -0.3906 0.0119 -0.2276 -0.4707 0.2059 0.0676 -0.1707 -0.3637 -0.0054 0.3390 0.0851 -0.2788 0.0238 0.0026 0.0901 0.1690 -0.3391 -0.2778 -0.4965 0.1299 0.1287 0.5621 0.0850 -0.2521 -0.3014 -0.0019 0.1524 -0.3880 -0.4101 -0.3449 0.3988 0.0510 -0.1608 -0.4280 0.2430 -0.2938 -0.4963 0.0924 0.1001 -0.0663 0.0119 -0.3750 0.1908 0.1801 -0.0148 0.0261 -0.5998 -0.2762 0.2413 0.0924 0.1480 -0.3734 -0.3256 -0.1088 -0.2301 0.0155 -0.4821 0.1570 0.0903 0.2378 0.1874 -0.0704 -0.0344 0.1033 -0.5919 -0.1412 0.0674 0.1575 0.0709 -0.1795 -0.5239 -0.4429 0.1022 0.0729 0.0051 0.1749 0.0536 -0.1509 0.3784 -0.4195 -0.1782 -0.4601 0.1008 -0.2994 0.2669 0.4060 0.2185 -0.5124 -0.1792 -0.1173 0.3106 -0.4965 -0.0657 0.3240 -0.2077 0.1318 0.3606 0.1027 0.1988 0.4690 0.2897 -0.1048 -0.3501 0.1331 -0.1095 0.2770 -0.1159 0.2654 -0.1808 0.1162 0.5521 -0.1723 0.0988 -0.0613 0.2875 0.1364 -0.0790 0.1993 -0.5261 -0.2429 0.2929 0.4366 -0.2460 0.5215 -0.1407 -0.0872 0.3556 0.4535 0.2513 0.1652 -0.2315 0.4015 -0.2163 0.2987 -0.0007 -0.1819 -0.0613 0.0130 0.3222 0.2406 -0.1546 -0.4525 0.3290 -0.1266 0.5676 -0.0478 -0.1793 -0.1920 -0.2926 0.3081 -0.2523 0.2736 0.0899 -0.2272 -0.0644 -0.2794 0.5045 -0.0677 -0.0593 0.1499 -0.4408 -0.0481 -0.2043 0.0575 0.3340 -0.2278 0.3000 0.1980 -0.4960 -0.2777 -0.0618 0.3400 0.3782 -0.0680 0.1719 -0.1420 0.1565 0.4520 0.3353 0.1405 -0.3670 -0.4508 0.5548 -0.1260 0.0609 -0.1924 0.4979 -0.2655 0.3164 0.4440 0.0461 -0.3988 0.0963 0.0392 -0.0919 0.5893 -0.0122 0.1709 -0.4317 -0.1545 0.2402 -0.3412 0.2126 0.1207 -0.2969 -0.5079 0.1860 0.2152 -0.3486 0.2380 0.1760 -0.3251 -0.3496 0.4779 0.0058 -0.2645 -0.4954 0.1709 0.2834 -0.4579 -0.0144 0.0885 -0.3563 0.4477 -0.1689 0.4169 -0.3966 -0.1207 -0.0353 0.2841 -0.5154 0.3051 0.0839 -0.3253 0.5021 -0.0283 -0.0564 0.2802 0.2359 0.0754 0.1546 -0.4796 0.1014 -0.2562 -0.2263 0.1250 0.0802 0.1558 -0.3706 0.1998 0.1039 -0.1228 -0.4402 0.3741 0.0892 0.5835 0.0720 -0.0245 0.0673 -0.6023 0.0706 -0.2949 0.2809 0.3500 0.1008 -0.1919 -0.2081 0.4565 -0.0822 0.5031 -0.2964 0.0867 
</DataArray>
<DataArray type="Float32" Name="Velocity" NumberOfComponents="3" format="ascii">
0.0000 0.0000 0.0000 0.0000 0.0000 0.0000 0.0000 0.0000 0.0000 0.0000 0.0000 0.0000 0.0000 0.0000 0.0000 0.0000 0.0000 0.0000 0.0000 0.0000 0.0000 0.0000 0.0000 0.0000 0.0000 0.0000 0.0000 0.0000 0.0000 0.0000 0.0000 0.0000 0.0000 0.0000 0.0000 0.0000 0.0000 0.0000 0.0000 0.0000 0.0000 0.0000 0.0000 0.0000 0.0000 0.0000 0.0000 0.0000 0.0000 0.0000 0.0000 0.0000 0.0000 0.0000 0.0000 0.0000 0.0000 0.0000 0.0000 0.0000 0.0000 0.0000 0.0000 0.0000 0.0000 0.0000 0.0000 0.0000 0.0000 0.0000 0.0000 0.0000 0.0000 0.0000 0.0000 0.0000 0.0000 0.0000 0.0000 0.0000 0.0000 0.0000 0.0000 0.0000 0.0000 0.0000 0.0000 0.0000 0.0000 0.0000 0.0000 0.0000 0.0000 0.0000 0.0000 0.0000 0.0000 0.0000 0.0000 0.0000 0.0000 0.0000 0.0000 0.0000 0.0000 0.0000 0.0000 0.0000 0.0000 0.0000 0.0000 0.0000 0.0000 0.0000 0.0000 0.0000 0.0000 0.0000 0.0000 0.0000 0.0000 0.0000 0.0000 0.0000 0.0000 0.0000 0.0000 0.0000 0.0000 0.0000 0.0000 0.0000 0.0000 0.0000 0.0000 0.0000 0.0000 0.0000 0.0000 0.0000 0.0000 0.0000 0.0000 0.0000 0.0000 0.0000 0.0000 0.0000 0.0000 0.0000 0.0000 0.0000 0.0000 0.0000 0.0000 0.0000 0.0000 0.0000 0.0000 0.0000 0.0000 0.0000 0.0000 0.0000 0.0000 0.0000 0.0000 0.0000 0.0000 0.0000 0.0000 0.0000 0.0000 0.0000 0.0000 0.0000 0.0000 0.0000 0.0000 0.0000 0.0000 0.0000 0.0000 0.0000 0.0000 0.0000 0.0000 0.0000 0.0000 0.0000 0.0000 0.0000 0.0000 0.0000 0.0000 0.0000 0.0000 0.0000 0.0000 0.0000 0.0000 0.0000 0.0000 0.0000 0.0000 0.0000 0.0000 0.0000 0.0000 0.0000 0.0000 0.0000 0.0000 0.0000 0.0000 0.0000 0.0000 0.0000 0.0000 0.0000 0.0000 0.0000 0.0000 0.0000 0.0000 0.0000 0.0000 0.0000 0.0000 0.0000 0.0000 0.0000 0.0000 0.0000 0.0000 0.0000 0.0000 0.0000 0.0000 0.0000 0.0000 0.0000 0.0000 0.0000 0.0000 0.0000 0.0000 0.0000 0.0000 0.0000 0.0000 0.0000 0.0000 0.0000 0.0000 0.0000 0.0000 0.0000 0.0000 0.0000 0.0000 0.0000 0.0000 0.0000 0.0000 0.0000 0.0000 0.0000 0.0000 0.0000 0.0000 0.0000 0.0000 0.0000 0.0000 0.0000 0.0000 0.0000 0.0000 0.0000 0.0000 0.0000 0.0000 0.0000 0.0000 0.0000 0.0000 0.0000 0.0000 0.0000 0.0000 0.0000 0.0000 0.0000 0.0000 0.0000 0.0000 0.0000 0.0000 0.0000 0.0000 0.0000 0.0000 0.0000 0.0000 0.0000 0.0000 0.0000 0.0000 0.0000 0.0000 0.0000 0.0000 0.0000 0.0000 0.0000 0.0000 0.0000 0.0000 0.0000 0.0000 0.0000 0.0000 0.0000 0.0000 0.0000 0.0000 0.0000 0.0000 0.0000 0.0000 0.0000 0.0000 0.0000 0.0000 0.0000 0.0000 0.0000 0.0000 0.0000 0.0000 0.0000 0.0000 0.0000 0.0000 0.0000 0.0000 0.0000 0.0000 0.0000 0.0000 0.0000 0.0000 0.0000 0.0000 0.0000 0.0000 0.0000 0.0000 0.0000 0.0000 0.0000 0.0000 0.0000 0.0000 0.0000 0.0000 0.0000 0.0000 0.0000 0.0000 0.0000 0.0000 0.0000 0.0000 0.0000 0.0000 0.0000 0.0000 0.0000 0.0000 0.0000 0.0000 0.0000 0.0000 0.0000 0.0000 0.0000 0.0000 0.0000 0.0000 0.0000 0.0000 0.0000 0.0000 0.0000 0.0000 0.0000 0.0000 0.0000 0.0000 0.0000 0.0000 0.0000 0.0000 0.0000 0.0000 0.0000 0.0000 0.0000 0.0000 0.0000 0.0000 0.0000 0.0000 0.0000 0.0000 0.0000 0.0000 0.0000 0.0000 0.0000 0.0000 0.0000 0.0000 0.0000 0.0000 0.0000 0.0000 0.0000 0.0000 0.0000 0.0000 0.0000 0.0000 0.0000 0.0000 0.0000 0.0000 0.0000 0.0000 0.0000 0.0000 0.0000 0.0000 0.0000 0.0000 0.0000 0.0000 0.0000 0.0000 0.0000 0.0000 0.0000 0.0000 0.0000 0.0000 0.0000 0.0000 0.0000 0.0000 0.0000 0.0000 0.0000 0.0000 0.0000 0.0000 0.0000 0.0000 0.0000 0.0000 0.0000 0.0000 0.0000 0.0000 0.0000 0.0000 0.0000 0.0000 0.0000 0.0000 0.0000 0.0000 0.0000 0.0000 0.0000 0.0000 0.0000 0.0000 0.0000 0.0000 0.0000 0.0000 0.0000 0.0000 0.0000 0.0000 0.0000 0.0000 0.0000 0.0000 0.0000 0.0000 0.0000 0.0000 0.0000 0.0000 0.0000 0.0000 0.0000 0.0000 0.0000 0.0000 0.0000 0.0000 0.0000 0.0000 0.0000 0.0000 0.0000 0.0000 0.0000 0.0000 0.0000 0.0000 0.0000 0.0000 0.0000 0.0000 0.0000 0.0000 0.0000 0.0000 0.0000 0.0000 0.0000 0.0000 0.0000 0.0000 0.0000 0.0000 0.0000 0.0000 0.0000 0.0000 0.0000 
</DataArray>
<DataArray type="Float32" Name="Radius" NumberOfComponents="1" format="ascii">
0.2836 0.4013 0.1318 0.2016 0.1180 0.3971 0.2083 0.1983 0.2316 0.1830 0.2083 0.3713 0.4684 0.4068 0.0904 0.1829 0.3563 0.0426 0.3370 0.0706 0.0906 0.2770 0.1479 0.2597 0.1799 0.0357 0.2470 0.1111 0.3861 0.1728 0.2415 0.1488 0.1852 0.4082 0.0789 0.3617 0.1983 0.2946 0.1310 0.1777 0.1186 0.0958 0.1461 0.1204 0.1697 0.2266 0.0285 0.2738 0.2145 0.1500 0.0684 0.3210 0.0978 0.3387 0.0725 0.0663 0.3437 0.1516 0.2290 0.0523 0.2101 0.1609 0.0319 0.2682 0.0319 0.0594 0.1467 0.1322 0.2393 0.1851 0.2074 0.1030 0.1359 0.2829 0.0245 0.0362 0.0912 0.0360 0.0578 0.0281 0.2335 0.3751 0.1181 0.0882 0.3214 0.0469 0.0591 0.0801 0.0418 0.0249 0.0686 0.2172 0.0552 0.1891 0.2694 0.2488 0.1514 0.0359 0.0394 0.1545 0.0395 0.0915 0.0982 0.0338 0.4255 0.1590 0.0297 0.2410 0.0967 0.2990 0.0949 0.2044 0.0293 0.2959 0.0623 0.1153 0.4013 0.0394 0.1161 0.0410 0.0430 0.0311 0.1806 0.2180 0.0308 0.2285 0.2693 0.2762 0.0354 0.2923 0.0539 0.0326 0.0331 0.0287 0.1362 0.0691 0.3517 0.2116 0.0355 0.0407 0.1352 0.1315 0.3295 0.0442 0.1371 0.3589 0.1107 0.0280 0.0997 0.3400 0.0311 0.0302 0.0244 0.0339 0.0381 0.1598 0.0273 0.1295 0.1480 0.0285 0.0812 0.0806 0.0313 0.0323 0.0845 0.0343 0.0294 0.1745 0.0162 0.0255 0.2424 0.0492 0.2341 0.2743 0.1852 0.0231 0.0286 0.0249 0.1995 0.0970 0.1169 0.0313 
</DataArray>
</PointData>
<CellData/>
</Piece>
</UnstructuredGrid>
</VTKFile>
