<?xml version="1.0"?>
<VTKFile type="UnstructuredGrid" version="0.1" byte_order="LittleEndian">
 <UnstructuredGrid>
  <Piece NumberOfPoints="182" NumberOfCells="0">
   <Cells>
    <DataArray type="Int32" name="connectivity" format="ascii">
       0
    </DataArray>
    <DataArray type="Float32" name="offset" format="ascii">
       0
    </DataArray>
    <DataArray type="UInt8" name="types" format="ascii">
       1
    </DataArray>
   </Cells>
   <Points>
<DataArray type="Float32" NumberOfComponents="3" format="ascii">
-0.1191 -0.1005 -0.1720 -0.1708 0.0386 0.0537 -0.1227 -0.3314 0.1245 0.2270 -0.1650 -0.2767 -0.1097 0.4567 0.1718 0.0411 -0.1093 -0.0710 -0.2777 0.2018 -0.1827 -0.3454 0.2446 -0.0509 -0.2300 -0.1549 -0.0646 -0.3672 0.2344 0.0489 -0.2000 0.0779 -0.2824 -0.1094 -0.0146 -0.1183 -0.0117 0.0471 -0.0139 -0.0781 0.0567 -0.1159 -0.2482 0.1802 -0.4246 -0.0316 -0.2549 0.2072 0.2232 -0.0166 0.0659 0.2139 0.0721 -0.4456 0.2307 -0.0838 0.1316 -0.4226 -0.2237 -0.0126 0.1357 0.0070 -0.4587 0.2490 -0.0591 -0.0813 0.1978 -0.1438 -0.3847 0.1250 -0.2982 0.1510 -0.0490 0.4110 0.0843 -0.5340 -0.1275 0.1934 -0.1553 0.2614 0.2059 0.0445 -0.4917 0.0974 -0.0028 -0.0199 0.0959 -0.1655 -0.2637 -0.1187 0.1710 -0.0539 -0.2585 -0.4275 0.1005 0.1645 0.2563 -0.1677 0.2978 -0.1396 0.1337 0.0713 0.4234 -0.0056 0.3265 0.2070 -0.1494 0.0402 -0.3965 -0.0576 0.0963 0.0572 -0.2466 0.1044 -0.4791 0.0541 0.0848 0.2745 0.0958 -0.1926 -0.0453 -0.4376 0.0133 0.3999 0.2090 -0.0121 0.4027 0.0087 0.2399 -0.0624 -0.4111 0.0716 -0.2291 0.1665 -0.3243 0.0276 -0.3207 -0.0090 -0.0558 0.0456 -0.5986 0.0789 -0.1841 0.1850 0.1075 -0.3621 0.0717 -0.3896 -0.1455 0.0308 0.5131 0.1130 0.1618 0.1357 0.0227 -0.1643 -0.4659 -0.0648 0.2190 0.0125 -0.0094 -0.2142 -0.3940 0.0497 0.3660 -0.2989 0.4648 0.0552 0.1678 0.0014 -0.0888 0.3186 -0.2316 -0.2264 -0.3597 0.1425 0.0605 0.4997 0.1837 0.0523 -0.0628 0.0455 -0.3733 -0.2720 0.1626 0.3214 -0.4120 0.2934 -0.3151 0.1233 -0.0896 -0.2742 0.3077 -0.2185 -0.4606 -0.2006 0.1459 -0.5036 0.0686 -0.0499 -0.4510 -0.1227 -0.3644 0.0124 -0.1436 -0.2137 0.0242 0.1744 -0.2478 0.2828 -0.2943 0.0996 0.2611 0.3985 -0.3270 -0.0853 0.3645 -0.2646 -0.1649 -0.1087 -0.1495 0.0971 -0.1119 0.0777 -0.5912 0.0591 -0.5346 0.2217 -0.2207 0.2785 0.3812 0.0512 0.5353 0.0258 -0.4253 0.3088 -0.2200 0.1510 -0.1035 -0.5737 -0.1627 0.3370 0.0931 0.1102 -0.0922 0.1079 0.3001 -0.4015 0.0471 -0.0231 0.0168 -0.5244 0.1405 0.0882 -0.0955 0.3725 -0.2700 -0.3448 0.5494 0.0629 0.0953 -0.1264 -0.4240 -0.0650 0.2168 -0.1578 -0.5167 0.4140 -0.3042 -0.3176 0.1542 -0.3817 0.3558 -0.2992 0.2727 0.0119 -0.0601 0.5194 0.2059 -0.1485 0.1079 -0.3637 0.1862 -0.2834 0.0851 0.2482 0.1293 0.0026 0.0145 -0.1910 -0.3391 -0.0315 0.5680 0.1299 0.1925 -0.5435 0.0850 0.0514 0.3896 -0.0019 -0.3366 0.2459 -0.4101 0.5048 -0.1519 0.0510 -0.0936 0.4475 0.2430 -0.0179 0.5765 0.0924 -0.1200 0.0023 0.0119 0.4189 0.0398 0.1801 0.0265 -0.0141 -0.5998 0.3625 -0.0557 0.0924 -0.3251 0.2360 -0.3256 -0.0314 0.2526 0.0155 0.4912 0.1257 0.0903 -0.1004 -0.2856 -0.0704 0.0844 -0.0687 -0.5919 0.1554 0.0188 0.1575 -0.1560 0.1136 -0.5239 0.4288 0.1510 0.0729 0.0894 -0.1504 0.0536 0.3302 -0.2386 -0.4195 -0.0961 0.4840 0.1008 0.3958 -0.0649 0.4060 -0.4591 0.3156 -0.1792 0.2655 -0.1994 -0.4965 0.2291 -0.2384 -0.2077 0.0820 -0.3751 0.1027 0.0834 -0.5025 0.2897 -0.0991 0.3518 0.1331 0.2409 -0.1752 -0.1159 -0.3209 0.0104 0.1162 -0.5585 -0.1503 0.0988 0.2058 -0.2099 0.1364 0.1735 -0.1260 -0.5261 0.3621 -0.1172 0.4366 0.4871 -0.3085 -0.1407 0.2641 -0.2535 0.4535 -0.1236 -0.2741 -0.2315 -0.4549 -0.0326 0.2987 -0.0969 0.1539 -0.0613 0.1617 -0.2790 0.2406 -0.1120 0.4649 0.3290 0.4111 -0.4114 -0.0478 0.0486 0.2582 -0.2926 -0.3953 0.0479 0.2736 -0.1976 0.1436 -0.0644 0.5063 -0.2763 -0.0677 0.1304 -0.0948 -0.4408 -0.0688 0.1983 0.0575 -0.4041 0.0134 0.3000 -0.4329 0.3127 -0.2777 0.2344 -0.2539 0.3782 0.1496 -0.1087 -0.1420 0.1101 -0.4655 0.3353 -0.3153 0.2346 -0.4508 -0.5359 -0.1909 0.0609 0.4293 -0.3173 -0.2655 -0.0292 -0.5444 0.0461 0.3883 0.1324 0.0392 0.3934 -0.4483 -0.0122 -0.3757 0.2729 -0.1545 -0.3856 0.1594 0.2126 -0.2610 0.1860 -0.5079 -0.0418 -0.2813 -0.3486 -0.1066 -0.2761 -0.3251 0.5513 -0.2162 0.0058 -0.0421 0.5600 0.1709 -0.4846 0.2347 -0.0144 -0.2657 0.2534 0.4477 0.3660 -0.2615 -0.3966 0.0830 0.0945 0.2841 0.5986 0.0186 0.0839 0.5436 -0.2496 -0.0283 0.1978 -0.2064 0.2359 0.0192 -0.1709 -0.4796 -0.2229 0.1620 -0.2263 -0.0625 -0.1347 0.1558 0.4200 0.0299 0.1039 -0.1322 0.4374 0.3741 0.2374 -0.5405 0.0720 0.0568 -0.0437 -0.6023 -0.2176 0.2112 0.2809 -0.2415 -0.2727 -0.1919 0.4203 -0.2739 -0.0822 -0.5836 -0.0193 0.0867 
</DataArray>
    </Points>
    <PointData>
<DataArray type="Float32" Name="Position" NumberOfComponents="3" format="ascii">
-0.1191 -0.1005 -0.1720 -0.1708 0.0386 0.0537 -0.1227 -0.3314 0.1245 0.2270 -0.1650 -0.2767 -0.1097 0.4567 0.1718 0.0411 -0.1093 -0.0710 -0.2777 0.2018 -0.1827 -0.3454 0.2446 -0.0509 -0.2300 -0.1549 -0.0646 -0.3672 0.2344 0.0489 -0.2000 0.0779 -0.2824 -0.1094 -0.0146 -0.1183 -0.0117 0.0471 -0.0139 -0.0781 0.0567 -0.1159 -0.2482 0.1802 -0.4246 -0.0316 -0.2549 0.2072 0.2232 -0.0166 0.0659 0.2139 0.0721 -0.4456 0.2307 -0.0838 0.1316 -0.4226 -0.2237 -0.0126 0.1357 0.0070 -0.4587 0.2490 -0.0591 -0.0813 0.1978 -0.1438 -0.3847 0.1250 -0.2982 0.1510 -0.0490 0.4110 0.0843 -0.5340 -0.1275 0.1934 -0.1553 0.2614 0.2059 0.0445 -0.4917 0.0974 -0.0028 -0.0199 0.0959 -0.1655 -0.2637 -0.1187 0.1710 -0.0539 -0.2585 -0.4275 0.1005 0.1645 0.2563 -0.1677 0.2978 -0.1396 0.1337 0.0713 0.4234 -0.0056 0.3265 0.2070 -0.1494 0.0402 -0.3965 -0.0576 0.0963 0.0572 -0.2466 0.1044 -0.4791 0.0541 0.0848 0.2745 0.0958 -0.1926 -0.0453 -0.4376 0.0133 0.3999 0.2090 -0.0121 0.4027 0.0087 0.2399 -0.0624 -0.4111 0.0716 -0.2291 0.1665 -0.3243 0.0276 -0.3207 -0.0090 -0.0558 0.0456 -0.5986 0.0789 -0.1841 0.1850 0.1075 -0.3621 0.0717 -0.3896 -0.1455 0.0308 0.5131 0.1130 0.1618 0.1357 0.0227 -0.1643 -0.4659 -0.0648 0.2190 0.0125 -0.0094 -0.2142 -0.3940 0.0497 0.3660 -0.2989 0.4648 0.0552 0.1678 0.0014 -0.0888 0.3186 -0.2316 -0.2264 -0.3597 0.1425 0.0605 0.4997 0.1837 0.0523 -0.0628 0.0455 -0.3733 -0.2720 0.1626 0.3214 -0.4120 0.2934 -0.3151 0.1233 -0.0896 -0.2742 0.3077 -0.2185 -0.4606 -0.2006 0.1459 -0.5036 0.0686 -0.0499 -0.4510 -0.1227 -0.3644 0.0124 -0.1436 -0.2137 0.0242 0.1744 -0.2478 0.2828 -0.2943 0.0996 0.2611 0.3985 -0.3270 -0.0853 0.3645 -0.2646 -0.1649 -0.1087 -0.1495 0.0971 -0.1119 0.0777 -0.5912 0.0591 -0.5346 0.2217 -0.2207 0.2785 0.3812 0.0512 0.5353 0.0258 -0.4253 0.3088 -0.2200 0.1510 -0.1035 -0.5737 -0.1627 0.3370 0.0931 0.1102 -0.0922 0.1079 0.3001 -0.4015 0.0471 -0.0231 0.0168 -0.5244 0.1405 0.0882 -0.0955 0.3725 -0.2700 -0.3448 0.5494 0.0629 0.0953 -0.1264 -0.4240 -0.0650 0.2168 -0.1578 -0.5167 0.4140 -0.3042 -0.3176 0.1542 -0.3817 0.3558 -0.2992 0.2727 0.0119 -0.0601 0.5194 0.2059 -0.1485 0.1079 -0.3637 0.1862 -0.2834 0.0851 0.2482 0.1293 0.0026 0.0145 -0.1910 -0.3391 -0.0315 0.5680 0.1299 0.1925 -0.5435 0.0850 0.0514 0.3896 -0.0019 -0.3366 0.2459 -0.4101 0.5048 -0.1519 0.0510 -0.0936 0.4475 0.2430 -0.0179 0.5765 0.0924 -0.1200 0.0023 0.0119 0.4189 0.0398 0.1801 0.0265 -0.0141 -0.5998 0.3625 -0.0557 0.0924 -0.3251 0.2360 -0.3256 -0.0314 0.2526 0.0155 0.4912 0.1257 0.0903 -0.1004 -0.2856 -0.0704 0.0844 -0.0687 -0.5919 0.1554 0.0188 0.1575 -0.1560 0.1136 -0.5239 0.4288 0.1510 0.0729 0.0894 -0.1504 0.0536 0.3302 -0.2386 -0.4195 -0.0961 0.4840 0.1008 0.3958 -0.0649 0.4060 -0.4591 0.3156 -0.1792 0.2655 -0.1994 -0.4965 0.2291 -0.2384 -0.2077 0.0820 -0.3751 0.1027 0.0834 -0.5025 0.2897 -0.0991 0.3518 0.1331 0.2409 -0.1752 -0.1159 -0.3209 0.0104 0.1162 -0.5585 -0.1503 0.0988 0.2058 -0.2099 0.1364 0.1735 -0.1260 -0.5261 0.3621 -0.1172 0.4366 0.4871 -0.3085 -0.1407 0.2641 -0.2535 0.4535 -0.1236 -0.2741 -0.2315 -0.4549 -0.0326 0.2987 -0.0969 0.1539 -0.0613 0.1617 -0.2790 0.2406 -0.1120 0.4649 0.3290 0.4111 -0.4114 -0.0478 0.0486 0.2582 -0.2926 -0.3953 0.0479 0.2736 -0.1976 0.1436 -0.0644 0.5063 -0.2763 -0.0677 0.1304 -0.0948 -0.4408 -0.0688 0.1983 0.0575 -0.4041 0.0134 0.3000 -0.4329 0.3127 -0.2777 0.2344 -0.2539 0.3782 0.1496 -0.1087 -0.1420 0.1101 -0.4655 0.3353 -0.3153 0.2346 -0.4508 -0.5359 -0.1909 0.0609 0.4293 -0.3173 -0.2655 -0.0292 -0.5444 0.0461 0.3883 0.1324 0.0392 0.3934 -0.4483 -0.0122 -0.3757 0.2729 -0.1545 -0.3856 0.1594 0.2126 -0.2610 0.1860 -0.5079 -0.0418 -0.2813 -0.3486 -0.1066 -0.2761 -0.3251 0.5513 -0.2162 0.0058 -0.0421 0.5600 0.1709 -0.4846 0.2347 -0.0144 -0.2657 0.2534 0.4477 0.3660 -0.2615 -0.3966 0.0830 0.0945 0.2841 0.5986 0.0186 0.0839 0.5436 -0.2496 -0.0283 0.1978 -0.2064 0.2359 0.0192 -0.1709 -0.4796 -0.2229 0.1620 -0.2263 -0.0625 -0.1347 0.1558 0.4200 0.0299 0.1039 -0.1322 0.4374 0.3741 0.2374 -0.5405 0.0720 0.0568 -0.0437 -0.6023 -0.2176 0.2112 0.2809 -0.2415 -0.2727 -0.1919 0.4203 -0.2739 -0.0822 -0.5836 -0.0193 0.0867 
</DataArray>
<DataArray type="Float32" Name="Velocity" NumberOfComponents="3" format="ascii">
0.0000 0.0000 0.0000 0.0000 0.0000 0.0000 0.0000 0.0000 0.0000 0.0000 0.0000 0.0000 0.0000 0.0000 0.0000 0.0000 0.0000 0.0000 0.0000 0.0000 0.0000 0.0000 0.0000 0.0000 0.0000 0.0000 0.0000 0.0000 0.0000 0.0000 0.0000 0.0000 0.0000 0.0000 0.0000 0.0000 0.0000 0.0000 0.0000 0.0000 0.0000 0.0000 0.0000 0.0000 0.0000 0.0000 0.0000 0.0000 0.0000 0.0000 0.0000 0.0000 0.0000 0.0000 0.0000 0.0000 0.0000 0.0000 0.0000 0.0000 0.0000 0.0000 0.0000 0.0000 0.0000 0.0000 0.0000 0.0000 0.0000 0.0000 0.0000 0.0000 0.0000 0.0000 0.0000 0.0000 0.0000 0.0000 0.0000 0.0000 0.0000 0.0000 0.0000 0.0000 0.0000 0.0000 0.0000 0.0000 0.0000 0.0000 0.0000 0.0000 0.0000 0.0000 0.0000 0.0000 0.0000 0.0000 0.0000 0.0000 0.0000 0.0000 0.0000 0.0000 0.0000 0.0000 0.0000 0.0000 0.0000 0.0000 0.0000 0.0000 0.0000 0.0000 0.0000 0.0000 0.0000 0.0000 0.0000 0.0000 0.0000 0.0000 0.0000 0.0000 0.0000 0.0000 0.0000 0.0000 0.0000 0.0000 0.0000 0.0000 0.0000 0.0000 0.0000 0.0000 0.0000 0.0000 0.0000 0.0000 0.0000 0.0000 0.0000 0.0000 0.0000 0.0000 0.0000 0.0000 0.0000 0.0000 0.0000 0.0000 0.0000 0.0000 0.0000 0.0000 0.0000 0.0000 0.0000 0.0000 0.0000 0.0000 0.0000 0.0000 0.0000 0.0000 0.0000 0.0000 0.0000 0.0000 0.0000 0.0000 0.0000 0.0000 0.0000 0.0000 0.0000 0.0000 0.0000 0.0000 0.0000 0.0000 0.0000 0.0000 0.0000 0.0000 0.0000 0.0000 0.0000 0.0000 0.0000 0.0000 0.0000 0.0000 0.0000 0.0000 0.0000 0.0000 0.0000 0.0000 0.0000 0.0000 0.0000 0.0000 0.0000 0.0000 0.0000 0.0000 0.0000 0.0000 0.0000 0.0000 0.0000 0.0000 0.0000 0.0000 0.0000 0.0000 0.0000 0.0000 0.0000 0.0000 0.0000 0.0000 0.0000 0.0000 0.0000 0.0000 0.0000 0.0000 0.0000 0.0000 0.0000 0.0000 0.0000 0.0000 0.0000 0.0000 0.0000 0.0000 0.0000 0.0000 0.0000 0.0000 0.0000 0.0000 0.0000 0.0000 0.0000 0.0000 0.0000 0.0000 0.0000 0.0000 0.0000 0.0000 0.0000 0.0000 0.0000 0.0000 0.0000 0.0000 0.0000 0.0000 0.0000 0.0000 0.0000 0.0000 0.0000 0.0000 0.0000 0.0000 0.0000 0.0000 0.0000 0.0000 0.0000 0.0000 0.0000 0.0000 0.0000 0.0000 0.0000 0.0000 0.0000 0.0000 0.0000 0.0000 0.0000 0.0000 0.0000 0.0000 0.0000 0.0000 0.0000 0.0000 0.0000 0.0000 0.0000 0.0000 0.0000 0.0000 0.0000 0.0000 0.0000 0.0000 0.0000 0.0000 0.0000 0.0000 0.0000 0.0000 0.0000 0.0000 0.0000 0.0000 0.0000 0.0000 0.0000 0.0000 0.0000 0.0000 0.0000 0.0000 0.0000 0.0000 0.0000 0.0000 0.0000 0.0000 0.0000 0.0000 0.0000 0.0000 0.0000 0.0000 0.0000 0.0000 0.0000 0.0000 0.0000 0.0000 0.0000 0.0000 0.0000 0.0000 0.0000 0.0000 0.0000 0.0000 0.0000 0.0000 0.0000 0.0000 0.0000 0.0000 0.0000 0.0000 0.0000 0.0000 0.0000 0.0000 0.0000 0.0000 0.0000 0.0000 0.0000 0.0000 0.0000 0.0000 0.0000 0.0000 0.0000 0.0000 0.0000 0.0000 0.0000 0.0000 0.0000 0.0000 0.0000 0.0000 0.0000 0.0000 0.0000 0.0000 0.0000 0.0000 0.0000 0.0000 0.0000 0.0000 0.0000 0.0000 0.0000 0.0000 0.0000 0.0000 0.0000 0.0000 0.0000 0.0000 0.0000 0.0000 0.0000 0.0000 0.0000 0.0000 0.0000 0.0000 0.0000 0.0000 0.0000 0.0000 0.0000 0.0000 0.0000 0.0000 0.0000 0.0000 0.0000 0.0000 0.0000 0.0000 0.0000 0.0000 0.0000 0.0000 0.0000 0.0000 0.0000 0.0000 0.0000 0.0000 0.0000 0.0000 0.0000 0.0000 0.0000 0.0000 0.0000 0.0000 0.0000 0.0000 0.0000 0.0000 0.0000 0.0000 0.0000 0.0000 0.0000 0.0000 0.0000 0.0000 0.0000 0.0000 0.0000 0.0000 0.0000 0.0000 0.0000 0.0000 0.0000 0.0000 0.0000 0.0000 0.0000 0.0000 0.0000 0.0000 0.0000 0.0000 0.0000 0.0000 0.0000 0.0000 0.0000 0.0000 0.0000 0.0000 0.0000 0.0000 0.0000 0.0000 0.0000 0.0000 0.0000 0.0000 0.0000 0.0000 0.0000 0.0000 0.0000 0.0000 0.0000 0.0000 0.0000 0.0000 0.0000 0.0000 0.0000 0.0000 0.0000 0.0000 0.0000 0.0000 0.0000 0.0000 0.0000 0.0000 0.0000 0.0000 0.0000 0.0000 0.0000 0.0000 0.0000 0.0000 0.0000 0.0000 0.0000 0.0000 0.0000 0.0000 0.0000 0.0000 0.0000 0.0000 0.0000 0.0000 0.0000 0.0000 0.0000 0.0000 0.0000 0.0000 0.0000 0.0000 0.0000 0.0000 0.0000 0.0000 0.0000 0.0000 0.0000 0.0000 
</DataArray>
<DataArray type="Float32" Name="Radius" NumberOfComponents="1" format="ascii">
0.2836 0.4013 0.1318 0.2016 0.1180 0.3971 0.2083 0.1983 0.2316 0.1830 0.2083 0.3713 0.4684 0.4068 0.0904 0.1829 0.3563 0.0426 0.3370 0.0706 0.0906 0.2770 0.1479 0.2597 0.1799 0.0357 0.2470 0.1111 0.3861 0.1728 0.2415 0.1488 0.1852 0.4082 0.0789 0.3617 0.1983 0.2946 0.1310 0.1777 0.1186 0.0958 0.1461 0.1204 0.1697 0.2266 0.0285 0.2738 0.2145 0.1500 0.0684 0.3210 0.0978 0.3387 0.0725 0.0663 0.3437 0.1516 0.2290 0.0523 0.2101 0.1609 0.0319 0.2682 0.0319 0.0594 0.1467 0.1322 0.2393 0.1851 0.2074 0.1030 0.1359 0.2829 0.0245 0.0362 0.0912 0.0360 0.0578 0.0281 0.2335 0.3751 0.1181 0.0882 0.3214 0.0469 0.0591 0.0801 0.0418 0.0249 0.0686 0.2172 0.0552 0.1891 0.2694 0.2488 0.1514 0.0359 0.0394 0.1545 0.0395 0.0915 0.0982 0.0338 0.4255 0.1590 0.0297 0.2410 0.0967 0.2990 0.0949 0.2044 0.0293 0.2959 0.0623 0.1153 0.4013 0.0394 0.1161 0.0410 0.0430 0.0311 0.1806 0.2180 0.0308 0.2285 0.2693 0.2762 0.0354 0.2923 0.0539 0.0326 0.0331 0.0287 0.1362 0.0691 0.3517 0.2116 0.0355 0.0407 0.1352 0.1315 0.3295 0.0442 0.1371 0.3589 0.1107 0.0280 0.0997 0.3400 0.0311 0.0302 0.0244 0.0339 0.0381 0.1598 0.0273 0.1295 0.1480 0.0285 0.0812 0.0806 0.0313 0.0323 0.0845 0.0343 0.0294 0.1745 0.0162 0.0255 0.2424 0.0492 0.2341 0.2743 0.1852 0.0231 0.0286 0.0249 0.1995 0.0970 0.1169 0.0313 
</DataArray>
</PointData>
<CellData/>
</Piece>
</UnstructuredGrid>
</VTKFile>
