<?xml version="1.0"?>
<VTKFile type="UnstructuredGrid" version="0.1" byte_order="LittleEndian">
 <UnstructuredGrid>
  <Piece NumberOfPoints="182" NumberOfCells="0">
   <Cells>
    <DataArray type="Int32" name="connectivity" format="ascii">
       0
    </DataArray>
    <DataArray type="Float32" name="offset" format="ascii">
       0
    </DataArray>
    <DataArray type="UInt8" name="types" format="ascii">
       1
    </DataArray>
   </Cells>
   <Points>
<DataArray type="Float32" NumberOfComponents="3" format="ascii">
0.1478 0.0496 -0.1720 0.1446 -0.0988 0.0537 0.2361 0.2630 0.1245 -0.1503 0.2370 -0.2767 -0.0661 -0.4650 0.1718 0.0021 0.1168 -0.0710 0.1840 -0.2899 -0.1827 0.2311 -0.3546 -0.0509 0.2709 0.0594 -0.0646 0.2552 -0.3531 0.0489 0.1573 -0.1460 -0.2824 0.1071 -0.0267 -0.1183 -0.0065 -0.0481 -0.0139 0.0517 -0.0814 -0.1159 0.1644 -0.2589 -0.4246 0.1232 0.2253 0.2072 -0.2014 0.0976 0.0659 -0.2254 0.0117 -0.4456 -0.1836 0.1628 0.1316 0.4753 0.0524 -0.0126 -0.1288 0.0435 -0.4587 -0.2098 0.1466 -0.0813 -0.1310 0.2065 -0.3847 -0.0064 0.3233 0.1510 -0.1057 -0.4002 0.0843 0.5434 -0.0780 0.1934 0.0481 -0.3002 0.2059 0.1396 0.4736 0.0974 0.0099 0.0175 0.0959 0.2510 0.1843 -0.1187 -0.1392 0.1131 -0.2585 0.3605 -0.2508 0.1645 -0.1766 0.2503 0.2978 0.0806 -0.1758 0.0713 -0.3916 0.1610 0.3265 -0.1375 0.2151 0.0402 0.3899 -0.0925 0.0963 0.0376 0.2503 0.1044 0.4255 -0.2266 0.0848 -0.2905 0.0120 -0.1926 0.2032 0.3902 0.0133 -0.4488 -0.0471 -0.0121 -0.3776 0.1401 0.2399 0.2093 0.3593 0.0716 0.1517 -0.2391 -0.3243 0.0925 0.3084 -0.0090 0.0351 -0.0630 -0.5986 -0.0055 0.2002 0.1850 0.0334 0.3763 0.0717 0.4158 -0.0082 0.0308 -0.5187 0.0839 0.1618 -0.1345 0.0288 -0.1643 0.4570 -0.1113 0.2190 -0.0082 0.0133 -0.2142 0.3480 -0.1912 0.3660 0.1068 -0.5422 0.0552 -0.1565 0.0605 -0.0888 -0.2109 0.3326 -0.2264 0.2820 -0.2649 0.0605 -0.5322 0.0132 0.0523 0.0416 -0.0654 -0.3733 0.1930 -0.2514 0.3214 0.2750 -0.4244 -0.3151 -0.0817 0.1287 -0.2742 -0.2057 0.3164 -0.4606 0.1328 -0.2095 -0.5036 -0.0454 0.0716 -0.4510 0.2482 0.2936 0.0124 0.2122 0.1459 0.0242 -0.0710 0.2946 0.2828 0.2370 -0.2009 0.2611 -0.2502 0.4507 -0.0853 -0.2414 0.3802 -0.1649 0.1562 0.0990 0.0971 0.0755 -0.1135 -0.5912 0.1418 0.5189 0.2217 0.1026 -0.3402 0.3812 -0.2446 -0.4789 0.0258 0.2817 -0.4437 -0.2200 -0.1023 0.1518 -0.5737 0.0272 -0.3732 0.0931 -0.0685 0.1263 0.1079 -0.1312 0.4837 0.0471 0.0153 -0.0241 -0.5244 -0.1631 -0.0303 -0.0955 -0.2469 0.3882 -0.3448 -0.5340 0.1438 0.0953 0.2737 0.3477 -0.0650 -0.1435 0.2265 -0.5167 -0.2730 0.4352 -0.3176 -0.0029 0.4117 0.3558 0.1778 -0.3637 0.0119 -0.1353 -0.5050 0.2059 0.0984 -0.1550 -0.3637 -0.0689 0.3320 0.0851 -0.2784 -0.0289 0.0026 0.0568 0.1829 -0.3391 -0.1798 -0.5397 0.1299 0.0211 0.5762 0.0850 -0.1912 -0.3433 -0.0019 0.2224 -0.3526 -0.4101 -0.4135 0.3271 0.0510 -0.0777 -0.4505 0.2430 -0.1956 -0.5426 0.0924 0.1107 -0.0464 0.0119 -0.4041 0.1172 0.1801 -0.0194 0.0229 -0.5998 -0.3165 0.1852 0.0924 0.2154 -0.3391 -0.3256 -0.0638 -0.2464 0.0155 -0.5030 0.0639 0.0903 0.1985 0.2286 -0.0704 -0.0532 0.0950 -0.5919 -0.1514 0.0398 0.1575 0.1033 -0.1630 -0.5239 -0.4542 0.0174 0.0729 -0.0277 0.1728 0.0536 -0.2192 0.3434 -0.4195 -0.0888 -0.4854 0.1008 -0.3441 0.2061 0.4060 0.3107 -0.4624 -0.1792 -0.1734 0.2831 -0.4965 -0.1252 0.3060 -0.2077 0.0619 0.3789 0.1027 0.1074 0.4979 0.2897 -0.0373 -0.3635 0.1331 -0.1595 0.2515 -0.1159 0.2946 -0.1278 0.1162 0.5746 -0.0658 0.0988 -0.1141 0.2709 0.1364 -0.1149 0.1810 -0.5261 -0.2935 0.2422 0.4366 -0.3394 0.4661 -0.1407 -0.1523 0.3329 0.4535 0.2159 0.2093 -0.2315 0.4349 -0.1372 0.2987 0.0334 -0.1788 -0.0613 -0.0476 0.3189 0.2406 -0.0670 -0.4734 0.3290 -0.2308 0.5339 -0.0478 -0.1402 -0.2222 -0.2926 0.3499 -0.1901 0.2736 0.1309 -0.2063 -0.0644 -0.3690 0.4433 -0.0677 -0.0863 0.1361 -0.4408 -0.0090 -0.2097 0.0575 0.3708 -0.1612 0.3000 0.2874 -0.4501 -0.2777 -0.1245 0.3224 0.3782 -0.0990 0.1561 -0.1420 0.0690 0.4733 0.3353 0.2068 -0.3342 -0.4508 0.5685 -0.0198 0.0609 -0.2823 0.4530 -0.2655 0.2276 0.4954 0.0461 -0.4098 0.0198 0.0392 -0.2007 0.5616 -0.0122 0.2488 -0.3921 -0.1545 0.2999 -0.2901 0.2126 0.1742 -0.2691 -0.5079 0.1424 0.2462 -0.3486 0.2008 0.2175 -0.3251 -0.4330 0.4040 0.0058 -0.1670 -0.5362 0.1709 0.3642 -0.3966 -0.0144 0.1537 -0.3334 0.4477 -0.2440 0.3779 -0.3966 -0.1119 -0.0573 0.2841 -0.5635 0.2031 0.0839 -0.4136 0.4322 -0.0283 -0.1080 0.2647 0.2359 0.0450 0.1660 -0.4796 0.1476 -0.2327 -0.2263 0.1077 0.1022 0.1558 -0.4015 0.1268 0.1039 -0.0381 -0.4554 0.3741 -0.0217 0.5899 0.0720 -0.0367 0.0615 -0.6023 0.1246 -0.2765 0.2809 0.3249 0.1646 -0.1919 -0.2900 0.4094 -0.0822 0.5497 -0.1969 0.0867 
</DataArray>
    </Points>
    <PointData>
<DataArray type="Float32" Name="Position" NumberOfComponents="3" format="ascii">
0.1478 0.0496 -0.1720 0.1446 -0.0988 0.0537 0.2361 0.2630 0.1245 -0.1503 0.2370 -0.2767 -0.0661 -0.4650 0.1718 0.0021 0.1168 -0.0710 0.1840 -0.2899 -0.1827 0.2311 -0.3546 -0.0509 0.2709 0.0594 -0.0646 0.2552 -0.3531 0.0489 0.1573 -0.1460 -0.2824 0.1071 -0.0267 -0.1183 -0.0065 -0.0481 -0.0139 0.0517 -0.0814 -0.1159 0.1644 -0.2589 -0.4246 0.1232 0.2253 0.2072 -0.2014 0.0976 0.0659 -0.2254 0.0117 -0.4456 -0.1836 0.1628 0.1316 0.4753 0.0524 -0.0126 -0.1288 0.0435 -0.4587 -0.2098 0.1466 -0.0813 -0.1310 0.2065 -0.3847 -0.0064 0.3233 0.1510 -0.1057 -0.4002 0.0843 0.5434 -0.0780 0.1934 0.0481 -0.3002 0.2059 0.1396 0.4736 0.0974 0.0099 0.0175 0.0959 0.2510 0.1843 -0.1187 -0.1392 0.1131 -0.2585 0.3605 -0.2508 0.1645 -0.1766 0.2503 0.2978 0.0806 -0.1758 0.0713 -0.3916 0.1610 0.3265 -0.1375 0.2151 0.0402 0.3899 -0.0925 0.0963 0.0376 0.2503 0.1044 0.4255 -0.2266 0.0848 -0.2905 0.0120 -0.1926 0.2032 0.3902 0.0133 -0.4488 -0.0471 -0.0121 -0.3776 0.1401 0.2399 0.2093 0.3593 0.0716 0.1517 -0.2391 -0.3243 0.0925 0.3084 -0.0090 0.0351 -0.0630 -0.5986 -0.0055 0.2002 0.1850 0.0334 0.3763 0.0717 0.4158 -0.0082 0.0308 -0.5187 0.0839 0.1618 -0.1345 0.0288 -0.1643 0.4570 -0.1113 0.2190 -0.0082 0.0133 -0.2142 0.3480 -0.1912 0.3660 0.1068 -0.5422 0.0552 -0.1565 0.0605 -0.0888 -0.2109 0.3326 -0.2264 0.2820 -0.2649 0.0605 -0.5322 0.0132 0.0523 0.0416 -0.0654 -0.3733 0.1930 -0.2514 0.3214 0.2750 -0.4244 -0.3151 -0.0817 0.1287 -0.2742 -0.2057 0.3164 -0.4606 0.1328 -0.2095 -0.5036 -0.0454 0.0716 -0.4510 0.2482 0.2936 0.0124 0.2122 0.1459 0.0242 -0.0710 0.2946 0.2828 0.2370 -0.2009 0.2611 -0.2502 0.4507 -0.0853 -0.2414 0.3802 -0.1649 0.1562 0.0990 0.0971 0.0755 -0.1135 -0.5912 0.1418 0.5189 0.2217 0.1026 -0.3402 0.3812 -0.2446 -0.4789 0.0258 0.2817 -0.4437 -0.2200 -0.1023 0.1518 -0.5737 0.0272 -0.3732 0.0931 -0.0685 0.1263 0.1079 -0.1312 0.4837 0.0471 0.0153 -0.0241 -0.5244 -0.1631 -0.0303 -0.0955 -0.2469 0.3882 -0.3448 -0.5340 0.1438 0.0953 0.2737 0.3477 -0.0650 -0.1435 0.2265 -0.5167 -0.2730 0.4352 -0.3176 -0.0029 0.4117 0.3558 0.1778 -0.3637 0.0119 -0.1353 -0.5050 0.2059 0.0984 -0.1550 -0.3637 -0.0689 0.3320 0.0851 -0.2784 -0.0289 0.0026 0.0568 0.1829 -0.3391 -0.1798 -0.5397 0.1299 0.0211 0.5762 0.0850 -0.1912 -0.3433 -0.0019 0.2224 -0.3526 -0.4101 -0.4135 0.3271 0.0510 -0.0777 -0.4505 0.2430 -0.1956 -0.5426 0.0924 0.1107 -0.0464 0.0119 -0.4041 0.1172 0.1801 -0.0194 0.0229 -0.5998 -0.3165 0.1852 0.0924 0.2154 -0.3391 -0.3256 -0.0638 -0.2464 0.0155 -0.5030 0.0639 0.0903 0.1985 0.2286 -0.0704 -0.0532 0.0950 -0.5919 -0.1514 0.0398 0.1575 0.1033 -0.1630 -0.5239 -0.4542 0.0174 0.0729 -0.0277 0.1728 0.0536 -0.2192 0.3434 -0.4195 -0.0888 -0.4854 0.1008 -0.3441 0.2061 0.4060 0.3107 -0.4624 -0.1792 -0.1734 0.2831 -0.4965 -0.1252 0.3060 -0.2077 0.0619 0.3789 0.1027 0.1074 0.4979 0.2897 -0.0373 -0.3635 0.1331 -0.1595 0.2515 -0.1159 0.2946 -0.1278 0.1162 0.5746 -0.0658 0.0988 -0.1141 0.2709 0.1364 -0.1149 0.1810 -0.5261 -0.2935 0.2422 0.4366 -0.3394 0.4661 -0.1407 -0.1523 0.3329 0.4535 0.2159 0.2093 -0.2315 0.4349 -0.1372 0.2987 0.0334 -0.1788 -0.0613 -0.0476 0.3189 0.2406 -0.0670 -0.4734 0.3290 -0.2308 0.5339 -0.0478 -0.1402 -0.2222 -0.2926 0.3499 -0.1901 0.2736 0.1309 -0.2063 -0.0644 -0.3690 0.4433 -0.0677 -0.0863 0.1361 -0.4408 -0.0090 -0.2097 0.0575 0.3708 -0.1612 0.3000 0.2874 -0.4501 -0.2777 -0.1245 0.3224 0.3782 -0.0990 0.1561 -0.1420 0.0690 0.4733 0.3353 0.2068 -0.3342 -0.4508 0.5685 -0.0198 0.0609 -0.2823 0.4530 -0.2655 0.2276 0.4954 0.0461 -0.4098 0.0198 0.0392 -0.2007 0.5616 -0.0122 0.2488 -0.3921 -0.1545 0.2999 -0.2901 0.2126 0.1742 -0.2691 -0.5079 0.1424 0.2462 -0.3486 0.2008 0.2175 -0.3251 -0.4330 0.4040 0.0058 -0.1670 -0.5362 0.1709 0.3642 -0.3966 -0.0144 0.1537 -0.3334 0.4477 -0.2440 0.3779 -0.3966 -0.1119 -0.0573 0.2841 -0.5635 0.2031 0.0839 -0.4136 0.4322 -0.0283 -0.1080 0.2647 0.2359 0.0450 0.1660 -0.4796 0.1476 -0.2327 -0.2263 0.1077 0.1022 0.1558 -0.4015 0.1268 0.1039 -0.0381 -0.4554 0.3741 -0.0217 0.5899 0.0720 -0.0367 0.0615 -0.6023 0.1246 -0.2765 0.2809 0.3249 0.1646 -0.1919 -0.2900 0.4094 -0.0822 0.5497 -0.1969 0.0867 
</DataArray>
<DataArray type="Float32" Name="Velocity" NumberOfComponents="3" format="ascii">
0.0000 0.0000 0.0000 0.0000 0.0000 0.0000 0.0000 0.0000 0.0000 0.0000 0.0000 0.0000 0.0000 0.0000 0.0000 0.0000 0.0000 0.0000 0.0000 0.0000 0.0000 0.0000 0.0000 0.0000 0.0000 0.0000 0.0000 0.0000 0.0000 0.0000 0.0000 0.0000 0.0000 0.0000 0.0000 0.0000 0.0000 0.0000 0.0000 0.0000 0.0000 0.0000 0.0000 0.0000 0.0000 0.0000 0.0000 0.0000 0.0000 0.0000 0.0000 0.0000 0.0000 0.0000 0.0000 0.0000 0.0000 0.0000 0.0000 0.0000 0.0000 0.0000 0.0000 0.0000 0.0000 0.0000 0.0000 0.0000 0.0000 0.0000 0.0000 0.0000 0.0000 0.0000 0.0000 0.0000 0.0000 0.0000 0.0000 0.0000 0.0000 0.0000 0.0000 0.0000 0.0000 0.0000 0.0000 0.0000 0.0000 0.0000 0.0000 0.0000 0.0000 0.0000 0.0000 0.0000 0.0000 0.0000 0.0000 0.0000 0.0000 0.0000 0.0000 0.0000 0.0000 0.0000 0.0000 0.0000 0.0000 0.0000 0.0000 0.0000 0.0000 0.0000 0.0000 0.0000 0.0000 0.0000 0.0000 0.0000 0.0000 0.0000 0.0000 0.0000 0.0000 0.0000 0.0000 0.0000 0.0000 0.0000 0.0000 0.0000 0.0000 0.0000 0.0000 0.0000 0.0000 0.0000 0.0000 0.0000 0.0000 0.0000 0.0000 0.0000 0.0000 0.0000 0.0000 0.0000 0.0000 0.0000 0.0000 0.0000 0.0000 0.0000 0.0000 0.0000 0.0000 0.0000 0.0000 0.0000 0.0000 0.0000 0.0000 0.0000 0.0000 0.0000 0.0000 0.0000 0.0000 0.0000 0.0000 0.0000 0.0000 0.0000 0.0000 0.0000 0.0000 0.0000 0.0000 0.0000 0.0000 0.0000 0.0000 0.0000 0.0000 0.0000 0.0000 0.0000 0.0000 0.0000 0.0000 0.0000 0.0000 0.0000 0.0000 0.0000 0.0000 0.0000 0.0000 0.0000 0.0000 0.0000 0.0000 0.0000 0.0000 0.0000 0.0000 0.0000 0.0000 0.0000 0.0000 0.0000 0.0000 0.0000 0.0000 0.0000 0.0000 0.0000 0.0000 0.0000 0.0000 0.0000 0.0000 0.0000 0.0000 0.0000 0.0000 0.0000 0.0000 0.0000 0.0000 0.0000 0.0000 0.0000 0.0000 0.0000 0.0000 0.0000 0.0000 0.0000 0.0000 0.0000 0.0000 0.0000 0.0000 0.0000 0.0000 0.0000 0.0000 0.0000 0.0000 0.0000 0.0000 0.0000 0.0000 0.0000 0.0000 0.0000 0.0000 0.0000 0.0000 0.0000 0.0000 0.0000 0.0000 0.0000 0.0000 0.0000 0.0000 0.0000 0.0000 0.0000 0.0000 0.0000 0.0000 0.0000 0.0000 0.0000 0.0000 0.0000 0.0000 0.0000 0.0000 0.0000 0.0000 0.0000 0.0000 0.0000 0.0000 0.0000 0.0000 0.0000 0.0000 0.0000 0.0000 0.0000 0.0000 0.0000 0.0000 0.0000 0.0000 0.0000 0.0000 0.0000 0.0000 0.0000 0.0000 0.0000 0.0000 0.0000 0.0000 0.0000 0.0000 0.0000 0.0000 0.0000 0.0000 0.0000 0.0000 0.0000 0.0000 0.0000 0.0000 0.0000 0.0000 0.0000 0.0000 0.0000 0.0000 0.0000 0.0000 0.0000 0.0000 0.0000 0.0000 0.0000 0.0000 0.0000 0.0000 0.0000 0.0000 0.0000 0.0000 0.0000 0.0000 0.0000 0.0000 0.0000 0.0000 0.0000 0.0000 0.0000 0.0000 0.0000 0.0000 0.0000 0.0000 0.0000 0.0000 0.0000 0.0000 0.0000 0.0000 0.0000 0.0000 0.0000 0.0000 0.0000 0.0000 0.0000 0.0000 0.0000 0.0000 0.0000 0.0000 0.0000 0.0000 0.0000 0.0000 0.0000 0.0000 0.0000 0.0000 0.0000 0.0000 0.0000 0.0000 0.0000 0.0000 0.0000 0.0000 0.0000 0.0000 0.0000 0.0000 0.0000 0.0000 0.0000 0.0000 0.0000 0.0000 0.0000 0.0000 0.0000 0.0000 0.0000 0.0000 0.0000 0.0000 0.0000 0.0000 0.0000 0.0000 0.0000 0.0000 0.0000 0.0000 0.0000 0.0000 0.0000 0.0000 0.0000 0.0000 0.0000 0.0000 0.0000 0.0000 0.0000 0.0000 0.0000 0.0000 0.0000 0.0000 0.0000 0.0000 0.0000 0.0000 0.0000 0.0000 0.0000 0.0000 0.0000 0.0000 0.0000 0.0000 0.0000 0.0000 0.0000 0.0000 0.0000 0.0000 0.0000 0.0000 0.0000 0.0000 0.0000 0.0000 0.0000 0.0000 0.0000 0.0000 0.0000 0.0000 0.0000 0.0000 0.0000 0.0000 0.0000 0.0000 0.0000 0.0000 0.0000 0.0000 0.0000 0.0000 0.0000 0.0000 0.0000 0.0000 0.0000 0.0000 0.0000 0.0000 0.0000 0.0000 0.0000 0.0000 0.0000 0.0000 0.0000 0.0000 0.0000 0.0000 0.0000 0.0000 0.0000 0.0000 0.0000 0.0000 0.0000 0.0000 0.0000 0.0000 0.0000 0.0000 0.0000 0.0000 0.0000 0.0000 0.0000 0.0000 0.0000 0.0000 0.0000 0.0000 0.0000 0.0000 0.0000 0.0000 0.0000 0.0000 0.0000 0.0000 0.0000 0.0000 0.0000 0.0000 0.0000 0.0000 0.0000 0.0000 0.0000 0.0000 0.0000 0.0000 0.0000 0.0000 0.0000 0.0000 0.0000 0.0000 0.0000 0.0000 0.0000 0.0000 0.0000 
</DataArray>
<DataArray type="Float32" Name="Radius" NumberOfComponents="1" format="ascii">
0.2836 0.4013 0.1318 0.2016 0.1180 0.3971 0.2083 0.1983 0.2316 0.1830 0.2083 0.3713 0.4684 0.4068 0.0904 0.1829 0.3563 0.0426 0.3370 0.0706 0.0906 0.2770 0.1479 0.2597 0.1799 0.0357 0.2470 0.1111 0.3861 0.1728 0.2415 0.1488 0.1852 0.4082 0.0789 0.3617 0.1983 0.2946 0.1310 0.1777 0.1186 0.0958 0.1461 0.1204 0.1697 0.2266 0.0285 0.2738 0.2145 0.1500 0.0684 0.3210 0.0978 0.3387 0.0725 0.0663 0.3437 0.1516 0.2290 0.0523 0.2101 0.1609 0.0319 0.2682 0.0319 0.0594 0.1467 0.1322 0.2393 0.1851 0.2074 0.1030 0.1359 0.2829 0.0245 0.0362 0.0912 0.0360 0.0578 0.0281 0.2335 0.3751 0.1181 0.0882 0.3214 0.0469 0.0591 0.0801 0.0418 0.0249 0.0686 0.2172 0.0552 0.1891 0.2694 0.2488 0.1514 0.0359 0.0394 0.1545 0.0395 0.0915 0.0982 0.0338 0.4255 0.1590 0.0297 0.2410 0.0967 0.2990 0.0949 0.2044 0.0293 0.2959 0.0623 0.1153 0.4013 0.0394 0.1161 0.0410 0.0430 0.0311 0.1806 0.2180 0.0308 0.2285 0.2693 0.2762 0.0354 0.2923 0.0539 0.0326 0.0331 0.0287 0.1362 0.0691 0.3517 0.2116 0.0355 0.0407 0.1352 0.1315 0.3295 0.0442 0.1371 0.3589 0.1107 0.0280 0.0997 0.3400 0.0311 0.0302 0.0244 0.0339 0.0381 0.1598 0.0273 0.1295 0.1480 0.0285 0.0812 0.0806 0.0313 0.0323 0.0845 0.0343 0.0294 0.1745 0.0162 0.0255 0.2424 0.0492 0.2341 0.2743 0.1852 0.0231 0.0286 0.0249 0.1995 0.0970 0.1169 0.0313 
</DataArray>
</PointData>
<CellData/>
</Piece>
</UnstructuredGrid>
</VTKFile>
