<?xml version="1.0"?>
<VTKFile type="UnstructuredGrid" version="0.1" byte_order="LittleEndian">
 <UnstructuredGrid>
  <Piece NumberOfPoints="182" NumberOfCells="0">
   <Cells>
    <DataArray type="Int32" name="connectivity" format="ascii">
       0
    </DataArray>
    <DataArray type="Float32" name="offset" format="ascii">
       0
    </DataArray>
    <DataArray type="UInt8" name="types" format="ascii">
       1
    </DataArray>
   </Cells>
   <Points>
<DataArray type="Float32" NumberOfComponents="3" format="ascii">
0.1359 0.0764 -0.1720 0.1605 -0.0700 0.0537 0.1826 0.3025 0.1245 -0.1921 0.2046 -0.2767 0.0222 -0.4691 0.1718 -0.0199 0.1151 -0.0710 0.2350 -0.2502 -0.1827 0.2935 -0.3050 -0.0509 0.2550 0.1091 -0.0646 0.3168 -0.2991 0.0489 0.1819 -0.1140 -0.2824 0.1102 -0.0061 -0.1183 0.0027 -0.0484 -0.0139 0.0661 -0.0703 -0.1159 0.2100 -0.2235 -0.4246 0.0788 0.2444 0.2072 -0.2161 0.0582 0.0659 -0.2236 -0.0307 -0.4456 -0.2109 0.1256 0.1316 0.4571 0.1405 -0.0126 -0.1346 0.0186 -0.4587 -0.2336 0.1047 -0.0813 -0.1674 0.1783 -0.3847 -0.0669 0.3163 0.1510 -0.0289 -0.4129 0.0843 0.5484 0.0252 0.1934 0.1035 -0.2859 0.2059 0.0484 0.4913 0.0974 0.0065 0.0191 0.0959 0.2120 0.2281 -0.1187 -0.1579 0.0850 -0.2585 0.4011 -0.1788 0.1645 -0.2203 0.2127 0.2978 0.1121 -0.1575 0.0713 -0.4148 0.0848 0.3265 -0.1754 0.1856 0.0402 0.4003 -0.0178 0.0963 -0.0099 0.2529 0.1044 0.4604 -0.1429 0.0848 -0.2876 -0.0427 -0.1926 0.1265 0.4214 0.0133 -0.4320 -0.1303 -0.0121 -0.3972 0.0669 0.2399 0.1383 0.3921 0.0716 0.1939 -0.2064 -0.3243 0.0330 0.3202 -0.0090 0.0463 -0.0553 -0.5986 -0.0430 0.1957 0.1850 -0.0377 0.3759 0.0717 0.4100 0.0699 0.0308 -0.5252 -0.0148 0.1618 -0.1376 0.0031 -0.1643 0.4698 -0.0237 0.2190 -0.0105 0.0115 -0.2142 0.3777 -0.1226 0.3660 0.2065 -0.5125 0.0552 -0.1651 0.0301 -0.0888 -0.2695 0.2872 -0.2264 0.3266 -0.2073 0.0605 -0.5253 -0.0868 0.0523 0.0531 -0.0564 -0.3733 0.2367 -0.2107 0.3214 0.3497 -0.3654 -0.3151 -0.1043 0.1111 -0.2742 -0.2613 0.2723 -0.4606 0.1697 -0.1809 -0.5036 -0.0580 0.0619 -0.4510 0.1888 0.3349 0.0124 0.1811 0.1830 0.0242 -0.1249 0.2761 0.2828 0.2704 -0.1530 0.2611 -0.3302 0.3959 -0.0853 -0.3084 0.3283 -0.1649 0.1348 0.1265 0.0971 0.0954 -0.0973 -0.5912 0.0421 0.5362 0.2217 0.1646 -0.3149 0.3812 -0.1506 -0.5163 0.0258 0.3599 -0.3831 -0.2200 -0.1289 0.1300 -0.5737 0.0967 -0.3615 0.0931 -0.0910 0.1112 0.1079 -0.2195 0.4506 0.0471 0.0195 -0.0209 -0.5244 -0.1545 -0.0603 -0.0955 -0.3153 0.3350 -0.3448 -0.5515 0.0412 0.0953 0.2037 0.3928 -0.0650 -0.1834 0.1956 -0.5167 -0.3497 0.3764 -0.3176 -0.0800 0.4039 0.3558 0.2428 -0.3240 0.0119 -0.0383 -0.5215 0.2059 0.1257 -0.1338 -0.3637 -0.1298 0.3132 0.0851 -0.2680 -0.0806 0.0026 0.0215 0.1903 -0.3391 -0.0755 -0.5639 0.1299 -0.0873 0.5700 0.0850 -0.1235 -0.3730 -0.0019 0.2845 -0.3046 -0.4101 -0.4674 0.2438 0.0510 0.0081 -0.4571 0.2430 -0.0905 -0.5696 0.0924 0.1175 -0.0248 0.0119 -0.4189 0.0394 0.1801 -0.0233 0.0188 -0.5998 -0.3456 0.1226 0.0924 0.2751 -0.2927 -0.3256 -0.0165 -0.2540 0.0155 -0.5060 -0.0315 0.0903 0.1521 0.2618 -0.0704 -0.0700 0.0833 -0.5919 -0.1561 0.0107 0.1575 0.1320 -0.1408 -0.5239 -0.4495 -0.0680 0.0729 -0.0596 0.1645 0.0536 -0.2796 0.2962 -0.4195 0.0037 -0.4934 0.1008 -0.3767 0.1380 0.4060 0.3918 -0.3960 -0.1792 -0.2234 0.2456 -0.4965 -0.1803 0.2771 -0.2077 -0.0102 0.3838 0.1027 0.0122 0.5092 0.2897 0.0315 -0.3641 0.1331 -0.2038 0.2172 -0.1159 0.3133 -0.0704 0.1162 0.5767 0.0430 0.0988 -0.1629 0.2448 0.1364 -0.1468 0.1562 -0.5261 -0.3337 0.1829 0.4366 -0.4207 0.3943 -0.1407 -0.2120 0.2985 0.4535 0.1728 0.2461 -0.2315 0.4530 -0.0533 0.2987 0.0663 -0.1693 -0.0613 -0.1065 0.3044 0.2406 0.0229 -0.4776 0.3290 -0.3267 0.4812 -0.0478 -0.0961 -0.2445 -0.2926 0.3793 -0.1212 0.2736 0.1672 -0.1781 -0.0644 -0.4455 0.3663 -0.0677 -0.1103 0.1175 -0.4408 0.0304 -0.2077 0.0575 0.3944 -0.0889 0.3000 0.3666 -0.3883 -0.2777 -0.1827 0.2933 0.3782 -0.1265 0.1348 -0.1420 -0.0209 0.4779 0.3353 0.2657 -0.2895 -0.4508 0.5622 0.0871 0.0609 -0.3622 0.3921 -0.2655 0.1307 0.5293 0.0461 -0.4062 -0.0573 0.0392 -0.3024 0.5141 -0.0122 0.3179 -0.3385 -0.1545 0.3490 -0.2288 0.2126 0.2215 -0.2317 -0.5079 0.0937 0.2685 -0.3486 0.1565 0.2513 -0.3251 -0.5010 0.3157 0.0058 -0.0635 -0.5580 0.1709 0.4321 -0.3214 -0.0144 0.2135 -0.2987 0.4477 -0.3105 0.3254 -0.3966 -0.0992 -0.0773 0.2841 -0.5915 0.0939 0.0839 -0.4872 0.3471 -0.0283 -0.1556 0.2398 0.2359 0.0131 0.1715 -0.4796 0.1886 -0.2009 -0.2263 0.0867 0.1206 0.1558 -0.4182 0.0493 0.1039 0.0479 -0.4544 0.3741 -0.1319 0.5754 0.0720 -0.0476 0.0535 -0.6023 0.1742 -0.2482 0.2809 0.2883 0.2226 -0.1919 -0.3616 0.3478 -0.0822 0.5769 -0.0904 0.0867 
</DataArray>
    </Points>
    <PointData>
<DataArray type="Float32" Name="Position" NumberOfComponents="3" format="ascii">
0.1359 0.0764 -0.1720 0.1605 -0.0700 0.0537 0.1826 0.3025 0.1245 -0.1921 0.2046 -0.2767 0.0222 -0.4691 0.1718 -0.0199 0.1151 -0.0710 0.2350 -0.2502 -0.1827 0.2935 -0.3050 -0.0509 0.2550 0.1091 -0.0646 0.3168 -0.2991 0.0489 0.1819 -0.1140 -0.2824 0.1102 -0.0061 -0.1183 0.0027 -0.0484 -0.0139 0.0661 -0.0703 -0.1159 0.2100 -0.2235 -0.4246 0.0788 0.2444 0.2072 -0.2161 0.0582 0.0659 -0.2236 -0.0307 -0.4456 -0.2109 0.1256 0.1316 0.4571 0.1405 -0.0126 -0.1346 0.0186 -0.4587 -0.2336 0.1047 -0.0813 -0.1674 0.1783 -0.3847 -0.0669 0.3163 0.1510 -0.0289 -0.4129 0.0843 0.5484 0.0252 0.1934 0.1035 -0.2859 0.2059 0.0484 0.4913 0.0974 0.0065 0.0191 0.0959 0.2120 0.2281 -0.1187 -0.1579 0.0850 -0.2585 0.4011 -0.1788 0.1645 -0.2203 0.2127 0.2978 0.1121 -0.1575 0.0713 -0.4148 0.0848 0.3265 -0.1754 0.1856 0.0402 0.4003 -0.0178 0.0963 -0.0099 0.2529 0.1044 0.4604 -0.1429 0.0848 -0.2876 -0.0427 -0.1926 0.1265 0.4214 0.0133 -0.4320 -0.1303 -0.0121 -0.3972 0.0669 0.2399 0.1383 0.3921 0.0716 0.1939 -0.2064 -0.3243 0.0330 0.3202 -0.0090 0.0463 -0.0553 -0.5986 -0.0430 0.1957 0.1850 -0.0377 0.3759 0.0717 0.4100 0.0699 0.0308 -0.5252 -0.0148 0.1618 -0.1376 0.0031 -0.1643 0.4698 -0.0237 0.2190 -0.0105 0.0115 -0.2142 0.3777 -0.1226 0.3660 0.2065 -0.5125 0.0552 -0.1651 0.0301 -0.0888 -0.2695 0.2872 -0.2264 0.3266 -0.2073 0.0605 -0.5253 -0.0868 0.0523 0.0531 -0.0564 -0.3733 0.2367 -0.2107 0.3214 0.3497 -0.3654 -0.3151 -0.1043 0.1111 -0.2742 -0.2613 0.2723 -0.4606 0.1697 -0.1809 -0.5036 -0.0580 0.0619 -0.4510 0.1888 0.3349 0.0124 0.1811 0.1830 0.0242 -0.1249 0.2761 0.2828 0.2704 -0.1530 0.2611 -0.3302 0.3959 -0.0853 -0.3084 0.3283 -0.1649 0.1348 0.1265 0.0971 0.0954 -0.0973 -0.5912 0.0421 0.5362 0.2217 0.1646 -0.3149 0.3812 -0.1506 -0.5163 0.0258 0.3599 -0.3831 -0.2200 -0.1289 0.1300 -0.5737 0.0967 -0.3615 0.0931 -0.0910 0.1112 0.1079 -0.2195 0.4506 0.0471 0.0195 -0.0209 -0.5244 -0.1545 -0.0603 -0.0955 -0.3153 0.3350 -0.3448 -0.5515 0.0412 0.0953 0.2037 0.3928 -0.0650 -0.1834 0.1956 -0.5167 -0.3497 0.3764 -0.3176 -0.0800 0.4039 0.3558 0.2428 -0.3240 0.0119 -0.0383 -0.5215 0.2059 0.1257 -0.1338 -0.3637 -0.1298 0.3132 0.0851 -0.2680 -0.0806 0.0026 0.0215 0.1903 -0.3391 -0.0755 -0.5639 0.1299 -0.0873 0.5700 0.0850 -0.1235 -0.3730 -0.0019 0.2845 -0.3046 -0.4101 -0.4674 0.2438 0.0510 0.0081 -0.4571 0.2430 -0.0905 -0.5696 0.0924 0.1175 -0.0248 0.0119 -0.4189 0.0394 0.1801 -0.0233 0.0188 -0.5998 -0.3456 0.1226 0.0924 0.2751 -0.2927 -0.3256 -0.0165 -0.2540 0.0155 -0.5060 -0.0315 0.0903 0.1521 0.2618 -0.0704 -0.0700 0.0833 -0.5919 -0.1561 0.0107 0.1575 0.1320 -0.1408 -0.5239 -0.4495 -0.0680 0.0729 -0.0596 0.1645 0.0536 -0.2796 0.2962 -0.4195 0.0037 -0.4934 0.1008 -0.3767 0.1380 0.4060 0.3918 -0.3960 -0.1792 -0.2234 0.2456 -0.4965 -0.1803 0.2771 -0.2077 -0.0102 0.3838 0.1027 0.0122 0.5092 0.2897 0.0315 -0.3641 0.1331 -0.2038 0.2172 -0.1159 0.3133 -0.0704 0.1162 0.5767 0.0430 0.0988 -0.1629 0.2448 0.1364 -0.1468 0.1562 -0.5261 -0.3337 0.1829 0.4366 -0.4207 0.3943 -0.1407 -0.2120 0.2985 0.4535 0.1728 0.2461 -0.2315 0.4530 -0.0533 0.2987 0.0663 -0.1693 -0.0613 -0.1065 0.3044 0.2406 0.0229 -0.4776 0.3290 -0.3267 0.4812 -0.0478 -0.0961 -0.2445 -0.2926 0.3793 -0.1212 0.2736 0.1672 -0.1781 -0.0644 -0.4455 0.3663 -0.0677 -0.1103 0.1175 -0.4408 0.0304 -0.2077 0.0575 0.3944 -0.0889 0.3000 0.3666 -0.3883 -0.2777 -0.1827 0.2933 0.3782 -0.1265 0.1348 -0.1420 -0.0209 0.4779 0.3353 0.2657 -0.2895 -0.4508 0.5622 0.0871 0.0609 -0.3622 0.3921 -0.2655 0.1307 0.5293 0.0461 -0.4062 -0.0573 0.0392 -0.3024 0.5141 -0.0122 0.3179 -0.3385 -0.1545 0.3490 -0.2288 0.2126 0.2215 -0.2317 -0.5079 0.0937 0.2685 -0.3486 0.1565 0.2513 -0.3251 -0.5010 0.3157 0.0058 -0.0635 -0.5580 0.1709 0.4321 -0.3214 -0.0144 0.2135 -0.2987 0.4477 -0.3105 0.3254 -0.3966 -0.0992 -0.0773 0.2841 -0.5915 0.0939 0.0839 -0.4872 0.3471 -0.0283 -0.1556 0.2398 0.2359 0.0131 0.1715 -0.4796 0.1886 -0.2009 -0.2263 0.0867 0.1206 0.1558 -0.4182 0.0493 0.1039 0.0479 -0.4544 0.3741 -0.1319 0.5754 0.0720 -0.0476 0.0535 -0.6023 0.1742 -0.2482 0.2809 0.2883 0.2226 -0.1919 -0.3616 0.3478 -0.0822 0.5769 -0.0904 0.0867 
</DataArray>
<DataArray type="Float32" Name="Velocity" NumberOfComponents="3" format="ascii">
0.0000 0.0000 0.0000 0.0000 0.0000 0.0000 0.0000 0.0000 0.0000 0.0000 0.0000 0.0000 0.0000 0.0000 0.0000 0.0000 0.0000 0.0000 0.0000 0.0000 0.0000 0.0000 0.0000 0.0000 0.0000 0.0000 0.0000 0.0000 0.0000 0.0000 0.0000 0.0000 0.0000 0.0000 0.0000 0.0000 0.0000 0.0000 0.0000 0.0000 0.0000 0.0000 0.0000 0.0000 0.0000 0.0000 0.0000 0.0000 0.0000 0.0000 0.0000 0.0000 0.0000 0.0000 0.0000 0.0000 0.0000 0.0000 0.0000 0.0000 0.0000 0.0000 0.0000 0.0000 0.0000 0.0000 0.0000 0.0000 0.0000 0.0000 0.0000 0.0000 0.0000 0.0000 0.0000 0.0000 0.0000 0.0000 0.0000 0.0000 0.0000 0.0000 0.0000 0.0000 0.0000 0.0000 0.0000 0.0000 0.0000 0.0000 0.0000 0.0000 0.0000 0.0000 0.0000 0.0000 0.0000 0.0000 0.0000 0.0000 0.0000 0.0000 0.0000 0.0000 0.0000 0.0000 0.0000 0.0000 0.0000 0.0000 0.0000 0.0000 0.0000 0.0000 0.0000 0.0000 0.0000 0.0000 0.0000 0.0000 0.0000 0.0000 0.0000 0.0000 0.0000 0.0000 0.0000 0.0000 0.0000 0.0000 0.0000 0.0000 0.0000 0.0000 0.0000 0.0000 0.0000 0.0000 0.0000 0.0000 0.0000 0.0000 0.0000 0.0000 0.0000 0.0000 0.0000 0.0000 0.0000 0.0000 0.0000 0.0000 0.0000 0.0000 0.0000 0.0000 0.0000 0.0000 0.0000 0.0000 0.0000 0.0000 0.0000 0.0000 0.0000 0.0000 0.0000 0.0000 0.0000 0.0000 0.0000 0.0000 0.0000 0.0000 0.0000 0.0000 0.0000 0.0000 0.0000 0.0000 0.0000 0.0000 0.0000 0.0000 0.0000 0.0000 0.0000 0.0000 0.0000 0.0000 0.0000 0.0000 0.0000 0.0000 0.0000 0.0000 0.0000 0.0000 0.0000 0.0000 0.0000 0.0000 0.0000 0.0000 0.0000 0.0000 0.0000 0.0000 0.0000 0.0000 0.0000 0.0000 0.0000 0.0000 0.0000 0.0000 0.0000 0.0000 0.0000 0.0000 0.0000 0.0000 0.0000 0.0000 0.0000 0.0000 0.0000 0.0000 0.0000 0.0000 0.0000 0.0000 0.0000 0.0000 0.0000 0.0000 0.0000 0.0000 0.0000 0.0000 0.0000 0.0000 0.0000 0.0000 0.0000 0.0000 0.0000 0.0000 0.0000 0.0000 0.0000 0.0000 0.0000 0.0000 0.0000 0.0000 0.0000 0.0000 0.0000 0.0000 0.0000 0.0000 0.0000 0.0000 0.0000 0.0000 0.0000 0.0000 0.0000 0.0000 0.0000 0.0000 0.0000 0.0000 0.0000 0.0000 0.0000 0.0000 0.0000 0.0000 0.0000 0.0000 0.0000 0.0000 0.0000 0.0000 0.0000 0.0000 0.0000 0.0000 0.0000 0.0000 0.0000 0.0000 0.0000 0.0000 0.0000 0.0000 0.0000 0.0000 0.0000 0.0000 0.0000 0.0000 0.0000 0.0000 0.0000 0.0000 0.0000 0.0000 0.0000 0.0000 0.0000 0.0000 0.0000 0.0000 0.0000 0.0000 0.0000 0.0000 0.0000 0.0000 0.0000 0.0000 0.0000 0.0000 0.0000 0.0000 0.0000 0.0000 0.0000 0.0000 0.0000 0.0000 0.0000 0.0000 0.0000 0.0000 0.0000 0.0000 0.0000 0.0000 0.0000 0.0000 0.0000 0.0000 0.0000 0.0000 0.0000 0.0000 0.0000 0.0000 0.0000 0.0000 0.0000 0.0000 0.0000 0.0000 0.0000 0.0000 0.0000 0.0000 0.0000 0.0000 0.0000 0.0000 0.0000 0.0000 0.0000 0.0000 0.0000 0.0000 0.0000 0.0000 0.0000 0.0000 0.0000 0.0000 0.0000 0.0000 0.0000 0.0000 0.0000 0.0000 0.0000 0.0000 0.0000 0.0000 0.0000 0.0000 0.0000 0.0000 0.0000 0.0000 0.0000 0.0000 0.0000 0.0000 0.0000 0.0000 0.0000 0.0000 0.0000 0.0000 0.0000 0.0000 0.0000 0.0000 0.0000 0.0000 0.0000 0.0000 0.0000 0.0000 0.0000 0.0000 0.0000 0.0000 0.0000 0.0000 0.0000 0.0000 0.0000 0.0000 0.0000 0.0000 0.0000 0.0000 0.0000 0.0000 0.0000 0.0000 0.0000 0.0000 0.0000 0.0000 0.0000 0.0000 0.0000 0.0000 0.0000 0.0000 0.0000 0.0000 0.0000 0.0000 0.0000 0.0000 0.0000 0.0000 0.0000 0.0000 0.0000 0.0000 0.0000 0.0000 0.0000 0.0000 0.0000 0.0000 0.0000 0.0000 0.0000 0.0000 0.0000 0.0000 0.0000 0.0000 0.0000 0.0000 0.0000 0.0000 0.0000 0.0000 0.0000 0.0000 0.0000 0.0000 0.0000 0.0000 0.0000 0.0000 0.0000 0.0000 0.0000 0.0000 0.0000 0.0000 0.0000 0.0000 0.0000 0.0000 0.0000 0.0000 0.0000 0.0000 0.0000 0.0000 0.0000 0.0000 0.0000 0.0000 0.0000 0.0000 0.0000 0.0000 0.0000 0.0000 0.0000 0.0000 0.0000 0.0000 0.0000 0.0000 0.0000 0.0000 0.0000 0.0000 0.0000 0.0000 0.0000 0.0000 0.0000 0.0000 0.0000 0.0000 0.0000 0.0000 0.0000 0.0000 0.0000 0.0000 0.0000 0.0000 0.0000 0.0000 0.0000 0.0000 0.0000 0.0000 0.0000 0.0000 0.0000 0.0000 0.0000 0.0000 
</DataArray>
<DataArray type="Float32" Name="Radius" NumberOfComponents="1" format="ascii">
0.2836 0.4013 0.1318 0.2016 0.1180 0.3971 0.2083 0.1983 0.2316 0.1830 0.2083 0.3713 0.4684 0.4068 0.0904 0.1829 0.3563 0.0426 0.3370 0.0706 0.0906 0.2770 0.1479 0.2597 0.1799 0.0357 0.2470 0.1111 0.3861 0.1728 0.2415 0.1488 0.1852 0.4082 0.0789 0.3617 0.1983 0.2946 0.1310 0.1777 0.1186 0.0958 0.1461 0.1204 0.1697 0.2266 0.0285 0.2738 0.2145 0.1500 0.0684 0.3210 0.0978 0.3387 0.0725 0.0663 0.3437 0.1516 0.2290 0.0523 0.2101 0.1609 0.0319 0.2682 0.0319 0.0594 0.1467 0.1322 0.2393 0.1851 0.2074 0.1030 0.1359 0.2829 0.0245 0.0362 0.0912 0.0360 0.0578 0.0281 0.2335 0.3751 0.1181 0.0882 0.3214 0.0469 0.0591 0.0801 0.0418 0.0249 0.0686 0.2172 0.0552 0.1891 0.2694 0.2488 0.1514 0.0359 0.0394 0.1545 0.0395 0.0915 0.0982 0.0338 0.4255 0.1590 0.0297 0.2410 0.0967 0.2990 0.0949 0.2044 0.0293 0.2959 0.0623 0.1153 0.4013 0.0394 0.1161 0.0410 0.0430 0.0311 0.1806 0.2180 0.0308 0.2285 0.2693 0.2762 0.0354 0.2923 0.0539 0.0326 0.0331 0.0287 0.1362 0.0691 0.3517 0.2116 0.0355 0.0407 0.1352 0.1315 0.3295 0.0442 0.1371 0.3589 0.1107 0.0280 0.0997 0.3400 0.0311 0.0302 0.0244 0.0339 0.0381 0.1598 0.0273 0.1295 0.1480 0.0285 0.0812 0.0806 0.0313 0.0323 0.0845 0.0343 0.0294 0.1745 0.0162 0.0255 0.2424 0.0492 0.2341 0.2743 0.1852 0.0231 0.0286 0.0249 0.1995 0.0970 0.1169 0.0313 
</DataArray>
</PointData>
<CellData/>
</Piece>
</UnstructuredGrid>
</VTKFile>
