<?xml version="1.0"?>
<VTKFile type="UnstructuredGrid" version="0.1" byte_order="LittleEndian">
 <UnstructuredGrid>
  <Piece NumberOfPoints="182" NumberOfCells="0">
   <Cells>
    <DataArray type="Int32" name="connectivity" format="ascii">
       0
    </DataArray>
    <DataArray type="Float32" name="offset" format="ascii">
       0
    </DataArray>
    <DataArray type="UInt8" name="types" format="ascii">
       1
    </DataArray>
   </Cells>
   <Points>
<DataArray type="Float32" NumberOfComponents="3" format="ascii">
-0.0307 0.1528 -0.1720 0.1161 0.1311 0.0537 -0.2313 0.2672 0.1245 -0.2539 -0.1194 -0.2767 0.4530 -0.1239 0.1718 -0.1156 0.0167 -0.0710 0.3106 0.1462 -0.1827 0.3808 0.1849 -0.0509 -0.0249 0.2762 -0.0646 0.3823 0.2089 0.0489 0.1646 0.1378 -0.2824 0.0399 0.1029 -0.1183 0.0469 -0.0124 -0.0139 0.0873 0.0411 -0.1159 0.2775 0.1307 -0.4246 -0.2081 0.1505 0.2072 -0.1221 -0.1876 0.0659 -0.0399 -0.2222 -0.4456 -0.1846 -0.1617 0.1316 0.0076 0.4781 -0.0126 -0.0593 -0.1223 -0.4587 -0.1718 -0.1898 -0.0813 -0.2213 -0.1041 -0.3847 -0.3215 0.0341 0.1510 0.3838 -0.1550 0.0843 0.1455 0.5294 0.1934 0.3039 0.0101 0.2059 -0.4523 0.1978 0.0974 -0.0161 0.0120 0.0959 -0.1514 0.2721 -0.1187 -0.1297 -0.1239 -0.2585 0.2940 0.3262 0.1645 -0.2704 -0.1438 0.2978 0.1845 0.0579 0.0713 -0.2088 -0.3683 0.3265 -0.2307 -0.1095 0.0402 0.1406 0.3752 0.0963 -0.2436 0.0687 0.1044 0.2782 0.3938 0.0848 -0.0483 -0.2867 -0.1926 -0.3617 0.2505 0.0133 -0.0095 -0.4511 -0.0121 -0.1863 -0.3571 0.2399 -0.3302 0.2527 0.0716 0.2562 0.1206 -0.3243 -0.2943 0.1304 -0.0090 0.0669 0.0270 -0.5986 -0.1994 0.0196 0.1850 -0.3691 0.0803 0.0717 0.0602 0.4115 0.0308 -0.1482 -0.5041 0.1618 -0.0454 -0.1299 -0.1643 0.1677 0.4395 0.2190 -0.0142 -0.0064 -0.2142 0.2333 0.3213 0.3660 0.5513 0.0380 0.0552 -0.0796 -0.1477 -0.0888 -0.3564 -0.1676 -0.2264 0.2981 0.2465 0.0605 -0.0798 -0.5264 0.0523 0.0701 0.0331 -0.3733 0.2736 0.1600 0.3214 0.4555 0.2197 -0.3151 -0.1379 -0.0649 -0.2742 -0.3397 -0.1644 -0.4606 0.2245 0.1055 -0.5036 -0.0768 -0.0360 -0.4510 -0.2602 0.2830 0.0124 -0.1181 0.2288 0.0242 -0.3012 -0.0335 0.2828 0.2290 0.2099 0.2611 -0.4785 -0.1917 -0.0853 -0.4075 -0.1919 -0.1649 -0.0786 0.1673 0.0971 0.1220 0.0606 -0.5912 -0.4970 0.2058 0.2217 0.3504 0.0592 0.3812 0.4445 -0.3027 0.0258 0.4755 0.2239 -0.2200 -0.1635 -0.0825 -0.5737 0.3737 -0.0198 0.0931 -0.1339 -0.0522 0.1079 -0.4963 -0.0695 0.0471 0.0259 0.0121 -0.5244 0.0096 -0.1656 -0.0955 -0.4161 -0.1963 -0.3448 -0.2096 -0.5118 0.0953 -0.3106 0.3151 -0.0650 -0.2427 -0.1139 -0.5167 -0.4660 -0.2163 -0.3176 -0.4088 0.0487 0.3558 0.3832 0.1308 0.0119 0.4841 -0.1976 0.2059 0.1661 0.0782 -0.3637 -0.3380 -0.0267 0.0851 -0.0062 -0.2798 0.0026 -0.1743 0.0793 -0.3391 0.5130 -0.2460 0.1299 -0.5690 0.0931 0.0850 0.3166 -0.2327 -0.0019 0.3777 0.1765 -0.4101 -0.3763 -0.3692 0.0510 0.4372 -0.1336 0.2430 0.5138 -0.2621 0.0924 0.0599 0.1040 0.0119 -0.1669 -0.3863 0.1801 -0.0251 -0.0164 -0.5998 -0.2234 -0.2908 0.0924 0.3634 0.1712 -0.3256 0.2365 -0.0941 0.0155 -0.1265 -0.4910 0.0903 -0.2020 0.2256 -0.0704 -0.1009 -0.0408 -0.5919 -0.0584 -0.1452 0.1575 0.1747 0.0820 -0.5239 -0.0742 -0.4485 0.0729 -0.1749 -0.0059 0.0536 -0.3681 -0.1744 -0.4195 0.4704 -0.1490 0.1008 -0.2476 -0.3156 0.4060 0.4977 0.2503 -0.1792 -0.3026 -0.1366 -0.4965 -0.3193 -0.0859 -0.2077 -0.3682 0.1089 0.1027 -0.4805 0.1690 0.2897 0.3560 -0.0826 0.1331 -0.2696 -0.1267 -0.1159 0.1638 0.2762 0.1162 0.1373 0.5618 0.0988 -0.2831 -0.0793 0.1364 -0.1940 -0.0913 -0.5261 -0.2771 -0.2608 0.4366 -0.5050 -0.2783 -0.1407 -0.3494 -0.1093 0.4535 -0.1806 0.2404 -0.2315 0.1906 0.4143 0.2987 0.1815 0.0107 -0.0613 -0.3224 -0.0073 0.2406 0.4613 -0.1258 0.3290 -0.5586 -0.1620 -0.0478 0.2028 -0.1669 -0.2926 0.2325 0.3233 0.2736 0.2211 0.1040 -0.0644 -0.4860 -0.3105 -0.0677 -0.1458 -0.0686 -0.4408 0.2069 -0.0352 0.0575 0.2064 0.3476 0.3000 0.4826 0.2287 -0.2777 -0.3354 -0.0831 0.3782 -0.1673 -0.0787 -0.1420 -0.4610 0.1278 0.3353 0.3575 0.1633 -0.4508 0.0909 0.5616 0.0609 -0.4848 -0.2233 -0.2655 -0.4630 0.2879 0.0461 -0.0710 -0.4041 0.0392 -0.5824 -0.1287 -0.0122 0.4202 0.1977 -0.1545 0.3254 0.2612 0.2126 0.2888 0.1391 -0.5079 -0.2264 0.1721 -0.3486 -0.1906 0.2264 -0.3251 -0.4550 -0.3790 0.0058 0.5110 -0.2329 0.1709 0.4392 0.3116 -0.0144 0.3501 0.1107 0.4477 -0.4055 -0.1948 -0.3966 0.0428 -0.1182 0.2841 -0.2721 -0.5336 0.0839 -0.4806 -0.3561 -0.0283 -0.2761 -0.0739 0.2359 -0.1590 0.0655 -0.4796 0.2493 0.1173 -0.2263 -0.0879 0.1197 0.1558 -0.1761 -0.3825 0.1039 0.4470 -0.0949 0.3741 -0.5880 0.0524 0.0720 -0.0656 -0.0287 -0.6023 0.2899 0.0890 0.2809 -0.1226 0.3430 -0.1919 -0.4425 -0.2364 -0.0822 0.2642 0.5207 0.0867 
</DataArray>
    </Points>
    <PointData>
<DataArray type="Float32" Name="Position" NumberOfComponents="3" format="ascii">
-0.0307 0.1528 -0.1720 0.1161 0.1311 0.0537 -0.2313 0.2672 0.1245 -0.2539 -0.1194 -0.2767 0.4530 -0.1239 0.1718 -0.1156 0.0167 -0.0710 0.3106 0.1462 -0.1827 0.3808 0.1849 -0.0509 -0.0249 0.2762 -0.0646 0.3823 0.2089 0.0489 0.1646 0.1378 -0.2824 0.0399 0.1029 -0.1183 0.0469 -0.0124 -0.0139 0.0873 0.0411 -0.1159 0.2775 0.1307 -0.4246 -0.2081 0.1505 0.2072 -0.1221 -0.1876 0.0659 -0.0399 -0.2222 -0.4456 -0.1846 -0.1617 0.1316 0.0076 0.4781 -0.0126 -0.0593 -0.1223 -0.4587 -0.1718 -0.1898 -0.0813 -0.2213 -0.1041 -0.3847 -0.3215 0.0341 0.1510 0.3838 -0.1550 0.0843 0.1455 0.5294 0.1934 0.3039 0.0101 0.2059 -0.4523 0.1978 0.0974 -0.0161 0.0120 0.0959 -0.1514 0.2721 -0.1187 -0.1297 -0.1239 -0.2585 0.2940 0.3262 0.1645 -0.2704 -0.1438 0.2978 0.1845 0.0579 0.0713 -0.2088 -0.3683 0.3265 -0.2307 -0.1095 0.0402 0.1406 0.3752 0.0963 -0.2436 0.0687 0.1044 0.2782 0.3938 0.0848 -0.0483 -0.2867 -0.1926 -0.3617 0.2505 0.0133 -0.0095 -0.4511 -0.0121 -0.1863 -0.3571 0.2399 -0.3302 0.2527 0.0716 0.2562 0.1206 -0.3243 -0.2943 0.1304 -0.0090 0.0669 0.0270 -0.5986 -0.1994 0.0196 0.1850 -0.3691 0.0803 0.0717 0.0602 0.4115 0.0308 -0.1482 -0.5041 0.1618 -0.0454 -0.1299 -0.1643 0.1677 0.4395 0.2190 -0.0142 -0.0064 -0.2142 0.2333 0.3213 0.3660 0.5513 0.0380 0.0552 -0.0796 -0.1477 -0.0888 -0.3564 -0.1676 -0.2264 0.2981 0.2465 0.0605 -0.0798 -0.5264 0.0523 0.0701 0.0331 -0.3733 0.2736 0.1600 0.3214 0.4555 0.2197 -0.3151 -0.1379 -0.0649 -0.2742 -0.3397 -0.1644 -0.4606 0.2245 0.1055 -0.5036 -0.0768 -0.0360 -0.4510 -0.2602 0.2830 0.0124 -0.1181 0.2288 0.0242 -0.3012 -0.0335 0.2828 0.2290 0.2099 0.2611 -0.4785 -0.1917 -0.0853 -0.4075 -0.1919 -0.1649 -0.0786 0.1673 0.0971 0.1220 0.0606 -0.5912 -0.4970 0.2058 0.2217 0.3504 0.0592 0.3812 0.4445 -0.3027 0.0258 0.4755 0.2239 -0.2200 -0.1635 -0.0825 -0.5737 0.3737 -0.0198 0.0931 -0.1339 -0.0522 0.1079 -0.4963 -0.0695 0.0471 0.0259 0.0121 -0.5244 0.0096 -0.1656 -0.0955 -0.4161 -0.1963 -0.3448 -0.2096 -0.5118 0.0953 -0.3106 0.3151 -0.0650 -0.2427 -0.1139 -0.5167 -0.4660 -0.2163 -0.3176 -0.4088 0.0487 0.3558 0.3832 0.1308 0.0119 0.4841 -0.1976 0.2059 0.1661 0.0782 -0.3637 -0.3380 -0.0267 0.0851 -0.0062 -0.2798 0.0026 -0.1743 0.0793 -0.3391 0.5130 -0.2460 0.1299 -0.5690 0.0931 0.0850 0.3166 -0.2327 -0.0019 0.3777 0.1765 -0.4101 -0.3763 -0.3692 0.0510 0.4372 -0.1336 0.2430 0.5138 -0.2621 0.0924 0.0599 0.1040 0.0119 -0.1669 -0.3863 0.1801 -0.0251 -0.0164 -0.5998 -0.2234 -0.2908 0.0924 0.3634 0.1712 -0.3256 0.2365 -0.0941 0.0155 -0.1265 -0.4910 0.0903 -0.2020 0.2256 -0.0704 -0.1009 -0.0408 -0.5919 -0.0584 -0.1452 0.1575 0.1747 0.0820 -0.5239 -0.0742 -0.4485 0.0729 -0.1749 -0.0059 0.0536 -0.3681 -0.1744 -0.4195 0.4704 -0.1490 0.1008 -0.2476 -0.3156 0.4060 0.4977 0.2503 -0.1792 -0.3026 -0.1366 -0.4965 -0.3193 -0.0859 -0.2077 -0.3682 0.1089 0.1027 -0.4805 0.1690 0.2897 0.3560 -0.0826 0.1331 -0.2696 -0.1267 -0.1159 0.1638 0.2762 0.1162 0.1373 0.5618 0.0988 -0.2831 -0.0793 0.1364 -0.1940 -0.0913 -0.5261 -0.2771 -0.2608 0.4366 -0.5050 -0.2783 -0.1407 -0.3494 -0.1093 0.4535 -0.1806 0.2404 -0.2315 0.1906 0.4143 0.2987 0.1815 0.0107 -0.0613 -0.3224 -0.0073 0.2406 0.4613 -0.1258 0.3290 -0.5586 -0.1620 -0.0478 0.2028 -0.1669 -0.2926 0.2325 0.3233 0.2736 0.2211 0.1040 -0.0644 -0.4860 -0.3105 -0.0677 -0.1458 -0.0686 -0.4408 0.2069 -0.0352 0.0575 0.2064 0.3476 0.3000 0.4826 0.2287 -0.2777 -0.3354 -0.0831 0.3782 -0.1673 -0.0787 -0.1420 -0.4610 0.1278 0.3353 0.3575 0.1633 -0.4508 0.0909 0.5616 0.0609 -0.4848 -0.2233 -0.2655 -0.4630 0.2879 0.0461 -0.0710 -0.4041 0.0392 -0.5824 -0.1287 -0.0122 0.4202 0.1977 -0.1545 0.3254 0.2612 0.2126 0.2888 0.1391 -0.5079 -0.2264 0.1721 -0.3486 -0.1906 0.2264 -0.3251 -0.4550 -0.3790 0.0058 0.5110 -0.2329 0.1709 0.4392 0.3116 -0.0144 0.3501 0.1107 0.4477 -0.4055 -0.1948 -0.3966 0.0428 -0.1182 0.2841 -0.2721 -0.5336 0.0839 -0.4806 -0.3561 -0.0283 -0.2761 -0.0739 0.2359 -0.1590 0.0655 -0.4796 0.2493 0.1173 -0.2263 -0.0879 0.1197 0.1558 -0.1761 -0.3825 0.1039 0.4470 -0.0949 0.3741 -0.5880 0.0524 0.0720 -0.0656 -0.0287 -0.6023 0.2899 0.0890 0.2809 -0.1226 0.3430 -0.1919 -0.4425 -0.2364 -0.0822 0.2642 0.5207 0.0867 
</DataArray>
<DataArray type="Float32" Name="Velocity" NumberOfComponents="3" format="ascii">
0.0000 0.0000 0.0000 0.0000 0.0000 0.0000 0.0000 0.0000 0.0000 0.0000 0.0000 0.0000 0.0000 0.0000 0.0000 0.0000 0.0000 0.0000 0.0000 0.0000 0.0000 0.0000 0.0000 0.0000 0.0000 0.0000 0.0000 0.0000 0.0000 0.0000 0.0000 0.0000 0.0000 0.0000 0.0000 0.0000 0.0000 0.0000 0.0000 0.0000 0.0000 0.0000 0.0000 0.0000 0.0000 0.0000 0.0000 0.0000 0.0000 0.0000 0.0000 0.0000 0.0000 0.0000 0.0000 0.0000 0.0000 0.0000 0.0000 0.0000 0.0000 0.0000 0.0000 0.0000 0.0000 0.0000 0.0000 0.0000 0.0000 0.0000 0.0000 0.0000 0.0000 0.0000 0.0000 0.0000 0.0000 0.0000 0.0000 0.0000 0.0000 0.0000 0.0000 0.0000 0.0000 0.0000 0.0000 0.0000 0.0000 0.0000 0.0000 0.0000 0.0000 0.0000 0.0000 0.0000 0.0000 0.0000 0.0000 0.0000 0.0000 0.0000 0.0000 0.0000 0.0000 0.0000 0.0000 0.0000 0.0000 0.0000 0.0000 0.0000 0.0000 0.0000 0.0000 0.0000 0.0000 0.0000 0.0000 0.0000 0.0000 0.0000 0.0000 0.0000 0.0000 0.0000 0.0000 0.0000 0.0000 0.0000 0.0000 0.0000 0.0000 0.0000 0.0000 0.0000 0.0000 0.0000 0.0000 0.0000 0.0000 0.0000 0.0000 0.0000 0.0000 0.0000 0.0000 0.0000 0.0000 0.0000 0.0000 0.0000 0.0000 0.0000 0.0000 0.0000 0.0000 0.0000 0.0000 0.0000 0.0000 0.0000 0.0000 0.0000 0.0000 0.0000 0.0000 0.0000 0.0000 0.0000 0.0000 0.0000 0.0000 0.0000 0.0000 0.0000 0.0000 0.0000 0.0000 0.0000 0.0000 0.0000 0.0000 0.0000 0.0000 0.0000 0.0000 0.0000 0.0000 0.0000 0.0000 0.0000 0.0000 0.0000 0.0000 0.0000 0.0000 0.0000 0.0000 0.0000 0.0000 0.0000 0.0000 0.0000 0.0000 0.0000 0.0000 0.0000 0.0000 0.0000 0.0000 0.0000 0.0000 0.0000 0.0000 0.0000 0.0000 0.0000 0.0000 0.0000 0.0000 0.0000 0.0000 0.0000 0.0000 0.0000 0.0000 0.0000 0.0000 0.0000 0.0000 0.0000 0.0000 0.0000 0.0000 0.0000 0.0000 0.0000 0.0000 0.0000 0.0000 0.0000 0.0000 0.0000 0.0000 0.0000 0.0000 0.0000 0.0000 0.0000 0.0000 0.0000 0.0000 0.0000 0.0000 0.0000 0.0000 0.0000 0.0000 0.0000 0.0000 0.0000 0.0000 0.0000 0.0000 0.0000 0.0000 0.0000 0.0000 0.0000 0.0000 0.0000 0.0000 0.0000 0.0000 0.0000 0.0000 0.0000 0.0000 0.0000 0.0000 0.0000 0.0000 0.0000 0.0000 0.0000 0.0000 0.0000 0.0000 0.0000 0.0000 0.0000 0.0000 0.0000 0.0000 0.0000 0.0000 0.0000 0.0000 0.0000 0.0000 0.0000 0.0000 0.0000 0.0000 0.0000 0.0000 0.0000 0.0000 0.0000 0.0000 0.0000 0.0000 0.0000 0.0000 0.0000 0.0000 0.0000 0.0000 0.0000 0.0000 0.0000 0.0000 0.0000 0.0000 0.0000 0.0000 0.0000 0.0000 0.0000 0.0000 0.0000 0.0000 0.0000 0.0000 0.0000 0.0000 0.0000 0.0000 0.0000 0.0000 0.0000 0.0000 0.0000 0.0000 0.0000 0.0000 0.0000 0.0000 0.0000 0.0000 0.0000 0.0000 0.0000 0.0000 0.0000 0.0000 0.0000 0.0000 0.0000 0.0000 0.0000 0.0000 0.0000 0.0000 0.0000 0.0000 0.0000 0.0000 0.0000 0.0000 0.0000 0.0000 0.0000 0.0000 0.0000 0.0000 0.0000 0.0000 0.0000 0.0000 0.0000 0.0000 0.0000 0.0000 0.0000 0.0000 0.0000 0.0000 0.0000 0.0000 0.0000 0.0000 0.0000 0.0000 0.0000 0.0000 0.0000 0.0000 0.0000 0.0000 0.0000 0.0000 0.0000 0.0000 0.0000 0.0000 0.0000 0.0000 0.0000 0.0000 0.0000 0.0000 0.0000 0.0000 0.0000 0.0000 0.0000 0.0000 0.0000 0.0000 0.0000 0.0000 0.0000 0.0000 0.0000 0.0000 0.0000 0.0000 0.0000 0.0000 0.0000 0.0000 0.0000 0.0000 0.0000 0.0000 0.0000 0.0000 0.0000 0.0000 0.0000 0.0000 0.0000 0.0000 0.0000 0.0000 0.0000 0.0000 0.0000 0.0000 0.0000 0.0000 0.0000 0.0000 0.0000 0.0000 0.0000 0.0000 0.0000 0.0000 0.0000 0.0000 0.0000 0.0000 0.0000 0.0000 0.0000 0.0000 0.0000 0.0000 0.0000 0.0000 0.0000 0.0000 0.0000 0.0000 0.0000 0.0000 0.0000 0.0000 0.0000 0.0000 0.0000 0.0000 0.0000 0.0000 0.0000 0.0000 0.0000 0.0000 0.0000 0.0000 0.0000 0.0000 0.0000 0.0000 0.0000 0.0000 0.0000 0.0000 0.0000 0.0000 0.0000 0.0000 0.0000 0.0000 0.0000 0.0000 0.0000 0.0000 0.0000 0.0000 0.0000 0.0000 0.0000 0.0000 0.0000 0.0000 0.0000 0.0000 0.0000 0.0000 0.0000 0.0000 0.0000 0.0000 0.0000 0.0000 0.0000 0.0000 0.0000 0.0000 0.0000 0.0000 0.0000 0.0000 0.0000 0.0000 0.0000 0.0000 0.0000 0.0000 0.0000 0.0000 0.0000 
</DataArray>
<DataArray type="Float32" Name="Radius" NumberOfComponents="1" format="ascii">
0.2836 0.4013 0.1318 0.2016 0.1180 0.3971 0.2083 0.1983 0.2316 0.1830 0.2083 0.3713 0.4684 0.4068 0.0904 0.1829 0.3563 0.0426 0.3370 0.0706 0.0906 0.2770 0.1479 0.2597 0.1799 0.0357 0.2470 0.1111 0.3861 0.1728 0.2415 0.1488 0.1852 0.4082 0.0789 0.3617 0.1983 0.2946 0.1310 0.1777 0.1186 0.0958 0.1461 0.1204 0.1697 0.2266 0.0285 0.2738 0.2145 0.1500 0.0684 0.3210 0.0978 0.3387 0.0725 0.0663 0.3437 0.1516 0.2290 0.0523 0.2101 0.1609 0.0319 0.2682 0.0319 0.0594 0.1467 0.1322 0.2393 0.1851 0.2074 0.1030 0.1359 0.2829 0.0245 0.0362 0.0912 0.0360 0.0578 0.0281 0.2335 0.3751 0.1181 0.0882 0.3214 0.0469 0.0591 0.0801 0.0418 0.0249 0.0686 0.2172 0.0552 0.1891 0.2694 0.2488 0.1514 0.0359 0.0394 0.1545 0.0395 0.0915 0.0982 0.0338 0.4255 0.1590 0.0297 0.2410 0.0967 0.2990 0.0949 0.2044 0.0293 0.2959 0.0623 0.1153 0.4013 0.0394 0.1161 0.0410 0.0430 0.0311 0.1806 0.2180 0.0308 0.2285 0.2693 0.2762 0.0354 0.2923 0.0539 0.0326 0.0331 0.0287 0.1362 0.0691 0.3517 0.2116 0.0355 0.0407 0.1352 0.1315 0.3295 0.0442 0.1371 0.3589 0.1107 0.0280 0.0997 0.3400 0.0311 0.0302 0.0244 0.0339 0.0381 0.1598 0.0273 0.1295 0.1480 0.0285 0.0812 0.0806 0.0313 0.0323 0.0845 0.0343 0.0294 0.1745 0.0162 0.0255 0.2424 0.0492 0.2341 0.2743 0.1852 0.0231 0.0286 0.0249 0.1995 0.0970 0.1169 0.0313 
</DataArray>
</PointData>
<CellData/>
</Piece>
</UnstructuredGrid>
</VTKFile>
