<?xml version="1.0"?>
<VTKFile type="UnstructuredGrid" version="0.1" byte_order="LittleEndian">
 <UnstructuredGrid>
  <Piece NumberOfPoints="182" NumberOfCells="0">
   <Cells>
    <DataArray type="Int32" name="connectivity" format="ascii">
       0
    </DataArray>
    <DataArray type="Float32" name="offset" format="ascii">
       0
    </DataArray>
    <DataArray type="UInt8" name="types" format="ascii">
       1
    </DataArray>
   </Cells>
   <Points>
<DataArray type="Float32" NumberOfComponents="3" format="ascii">
0.0180 0.1548 -0.1720 0.1510 0.0888 0.0537 -0.1374 0.3256 0.1245 -0.2784 -0.0351 -0.2767 0.3926 -0.2578 0.1718 -0.1048 0.0516 -0.0710 0.3406 0.0430 -0.1827 0.4192 0.0582 -0.0509 0.0616 0.2704 -0.0646 0.4282 0.0805 0.0489 0.1991 0.0802 -0.2824 0.0697 0.0856 -0.1183 0.0407 -0.0263 -0.0139 0.0957 0.0121 -0.1159 0.3043 0.0385 -0.4246 -0.1514 0.2075 0.2072 -0.1741 -0.1406 0.0659 -0.1066 -0.1990 -0.4456 -0.2255 -0.0968 0.1316 0.1550 0.4523 -0.0126 -0.0942 -0.0980 -0.4587 -0.2220 -0.1274 -0.0813 -0.2426 -0.0306 -0.3847 -0.2952 0.1318 0.1510 0.3171 -0.2660 0.0843 0.3020 0.4585 0.1934 0.2921 -0.0843 0.2059 -0.3690 0.3279 0.0974 -0.0116 0.0164 0.0959 -0.0599 0.3055 -0.1187 -0.1616 -0.0778 -0.2585 0.3804 0.2194 0.1645 -0.3016 -0.0532 0.2978 0.1933 -0.0019 0.0713 -0.3124 -0.2858 0.3265 -0.2532 -0.0328 0.0402 0.2497 0.3134 0.0963 -0.2104 0.1406 0.1044 0.3862 0.2885 0.0848 -0.1345 -0.2577 -0.1926 -0.2666 0.3500 0.0133 -0.1485 -0.4261 -0.0121 -0.2876 -0.2820 0.2399 -0.2359 0.3424 0.0716 0.2810 0.0355 -0.3243 -0.2397 0.2150 -0.0090 0.0719 0.0050 -0.5986 -0.1835 0.0802 0.1850 -0.3263 0.1904 0.0717 0.1844 0.3728 0.0308 -0.2967 -0.4336 0.1618 -0.0833 -0.1095 -0.1643 0.2953 0.3662 0.2190 -0.0155 -0.0017 -0.2142 0.3212 0.2335 0.3660 0.5360 -0.1342 0.0552 -0.1214 -0.1158 -0.0888 -0.3908 -0.0492 -0.2264 0.3597 0.1423 0.0605 -0.2386 -0.4760 0.0523 0.0769 0.0098 -0.3733 0.3096 0.0676 0.3214 0.5011 0.0682 -0.3151 -0.1512 -0.0191 -0.2742 -0.3739 -0.0514 -0.4606 0.2461 0.0310 -0.5036 -0.0841 -0.0106 -0.4510 -0.1600 0.3496 0.0124 -0.0416 0.2541 0.0242 -0.2968 0.0612 0.2828 0.2827 0.1289 0.2611 -0.5143 -0.0344 -0.0853 -0.4468 -0.0566 -0.1649 -0.0231 0.1834 0.0971 0.1348 0.0200 -0.5912 -0.4091 0.3493 0.2217 0.3515 -0.0520 0.3812 0.3292 -0.4253 0.0258 0.5214 0.0660 -0.2200 -0.1809 -0.0279 -0.5737 0.3493 -0.1343 0.0931 -0.1434 -0.0083 0.1079 -0.4935 0.0872 0.0471 0.0284 0.0036 -0.5244 -0.0420 -0.1604 -0.0955 -0.4564 -0.0582 -0.3448 -0.3575 -0.4219 0.0953 -0.1981 0.3956 -0.0650 -0.2660 -0.0334 -0.5167 -0.5100 -0.0617 -0.3176 -0.3737 0.1727 0.3558 0.4048 0.0060 0.0119 0.3993 -0.3375 0.2059 0.1821 0.0230 -0.3637 -0.3297 0.0791 0.0851 -0.0924 -0.2642 0.0026 -0.1413 0.1293 -0.3391 0.4118 -0.3925 0.1299 -0.5124 0.2644 0.0850 0.2292 -0.3192 -0.0019 0.4137 0.0511 -0.4101 -0.4720 -0.2349 0.0510 0.3746 -0.2621 0.2430 0.4076 -0.4080 0.0924 0.0891 0.0805 0.0119 -0.2781 -0.3158 0.1801 -0.0290 -0.0078 -0.5998 -0.3024 -0.2075 0.0924 0.3985 0.0505 -0.3256 0.1958 -0.1626 0.0155 -0.2720 -0.4279 0.0903 -0.1224 0.2769 -0.0704 -0.1086 -0.0077 -0.5919 -0.1004 -0.1200 0.1575 0.1915 0.0240 -0.5239 -0.2092 -0.4036 0.0729 -0.1681 0.0485 0.0536 -0.4040 -0.0521 -0.4195 0.4014 -0.2870 0.1008 -0.3330 -0.2236 0.4060 0.5507 0.0842 -0.1792 -0.3300 -0.0364 -0.4965 -0.3302 0.0170 -0.2077 -0.3165 0.2173 0.1027 -0.4048 0.3092 0.2897 0.3131 -0.1885 0.1331 -0.2955 -0.0372 -0.1159 0.2411 0.2121 0.1162 0.3042 0.4919 0.0988 -0.2937 0.0121 0.1364 -0.2127 -0.0269 -0.5261 -0.3441 -0.1624 0.4366 -0.5663 -0.1086 -0.1407 -0.3661 0.0040 0.4535 -0.0975 0.2844 -0.2315 0.3093 0.3351 0.2987 0.1760 -0.0459 -0.0613 -0.3089 0.0927 0.2406 0.3998 -0.2622 0.3290 -0.5813 0.0185 -0.0478 0.1413 -0.2214 -0.2926 0.3210 0.2357 0.2736 0.2424 0.0306 -0.0644 -0.5582 -0.1452 -0.0677 -0.1599 -0.0202 -0.4408 0.1859 -0.0974 0.0575 0.3037 0.2668 0.3000 0.5296 0.0684 -0.2777 -0.3447 0.0247 0.3782 -0.1834 -0.0231 -0.1420 -0.3989 0.2640 0.3353 0.3904 0.0448 -0.4508 0.2600 0.5060 0.0609 -0.5301 -0.0625 -0.2655 -0.3514 0.4168 0.0461 -0.1924 -0.3624 0.0392 -0.5936 0.0575 -0.0122 0.4607 0.0582 -0.1545 0.3902 0.1478 0.2126 0.3176 0.0430 -0.5079 -0.1621 0.2337 -0.3486 -0.1113 0.2743 -0.3251 -0.5499 -0.2198 0.0058 0.4141 -0.3794 0.1709 0.5140 0.1607 -0.0144 0.3671 -0.0029 0.4477 -0.4458 -0.0599 -0.3966 0.0042 -0.1257 0.2841 -0.4237 -0.4234 0.0839 -0.5672 -0.1902 -0.0283 -0.2855 0.0150 0.2359 -0.1310 0.1114 -0.4796 0.2734 0.0345 -0.2263 -0.0466 0.1410 0.1558 -0.2857 -0.3093 0.1039 0.3958 -0.2284 0.3741 -0.5430 0.2315 0.0720 -0.0713 -0.0070 -0.6023 0.3032 -0.0050 0.2809 -0.0106 0.3641 -0.1919 -0.4939 -0.0881 -0.0822 0.4122 0.4136 0.0867 
</DataArray>
    </Points>
    <PointData>
<DataArray type="Float32" Name="Position" NumberOfComponents="3" format="ascii">
0.0180 0.1548 -0.1720 0.1510 0.0888 0.0537 -0.1374 0.3256 0.1245 -0.2784 -0.0351 -0.2767 0.3926 -0.2578 0.1718 -0.1048 0.0516 -0.0710 0.3406 0.0430 -0.1827 0.4192 0.0582 -0.0509 0.0616 0.2704 -0.0646 0.4282 0.0805 0.0489 0.1991 0.0802 -0.2824 0.0697 0.0856 -0.1183 0.0407 -0.0263 -0.0139 0.0957 0.0121 -0.1159 0.3043 0.0385 -0.4246 -0.1514 0.2075 0.2072 -0.1741 -0.1406 0.0659 -0.1066 -0.1990 -0.4456 -0.2255 -0.0968 0.1316 0.1550 0.4523 -0.0126 -0.0942 -0.0980 -0.4587 -0.2220 -0.1274 -0.0813 -0.2426 -0.0306 -0.3847 -0.2952 0.1318 0.1510 0.3171 -0.2660 0.0843 0.3020 0.4585 0.1934 0.2921 -0.0843 0.2059 -0.3690 0.3279 0.0974 -0.0116 0.0164 0.0959 -0.0599 0.3055 -0.1187 -0.1616 -0.0778 -0.2585 0.3804 0.2194 0.1645 -0.3016 -0.0532 0.2978 0.1933 -0.0019 0.0713 -0.3124 -0.2858 0.3265 -0.2532 -0.0328 0.0402 0.2497 0.3134 0.0963 -0.2104 0.1406 0.1044 0.3862 0.2885 0.0848 -0.1345 -0.2577 -0.1926 -0.2666 0.3500 0.0133 -0.1485 -0.4261 -0.0121 -0.2876 -0.2820 0.2399 -0.2359 0.3424 0.0716 0.2810 0.0355 -0.3243 -0.2397 0.2150 -0.0090 0.0719 0.0050 -0.5986 -0.1835 0.0802 0.1850 -0.3263 0.1904 0.0717 0.1844 0.3728 0.0308 -0.2967 -0.4336 0.1618 -0.0833 -0.1095 -0.1643 0.2953 0.3662 0.2190 -0.0155 -0.0017 -0.2142 0.3212 0.2335 0.3660 0.5360 -0.1342 0.0552 -0.1214 -0.1158 -0.0888 -0.3908 -0.0492 -0.2264 0.3597 0.1423 0.0605 -0.2386 -0.4760 0.0523 0.0769 0.0098 -0.3733 0.3096 0.0676 0.3214 0.5011 0.0682 -0.3151 -0.1512 -0.0191 -0.2742 -0.3739 -0.0514 -0.4606 0.2461 0.0310 -0.5036 -0.0841 -0.0106 -0.4510 -0.1600 0.3496 0.0124 -0.0416 0.2541 0.0242 -0.2968 0.0612 0.2828 0.2827 0.1289 0.2611 -0.5143 -0.0344 -0.0853 -0.4468 -0.0566 -0.1649 -0.0231 0.1834 0.0971 0.1348 0.0200 -0.5912 -0.4091 0.3493 0.2217 0.3515 -0.0520 0.3812 0.3292 -0.4253 0.0258 0.5214 0.0660 -0.2200 -0.1809 -0.0279 -0.5737 0.3493 -0.1343 0.0931 -0.1434 -0.0083 0.1079 -0.4935 0.0872 0.0471 0.0284 0.0036 -0.5244 -0.0420 -0.1604 -0.0955 -0.4564 -0.0582 -0.3448 -0.3575 -0.4219 0.0953 -0.1981 0.3956 -0.0650 -0.2660 -0.0334 -0.5167 -0.5100 -0.0617 -0.3176 -0.3737 0.1727 0.3558 0.4048 0.0060 0.0119 0.3993 -0.3375 0.2059 0.1821 0.0230 -0.3637 -0.3297 0.0791 0.0851 -0.0924 -0.2642 0.0026 -0.1413 0.1293 -0.3391 0.4118 -0.3925 0.1299 -0.5124 0.2644 0.0850 0.2292 -0.3192 -0.0019 0.4137 0.0511 -0.4101 -0.4720 -0.2349 0.0510 0.3746 -0.2621 0.2430 0.4076 -0.4080 0.0924 0.0891 0.0805 0.0119 -0.2781 -0.3158 0.1801 -0.0290 -0.0078 -0.5998 -0.3024 -0.2075 0.0924 0.3985 0.0505 -0.3256 0.1958 -0.1626 0.0155 -0.2720 -0.4279 0.0903 -0.1224 0.2769 -0.0704 -0.1086 -0.0077 -0.5919 -0.1004 -0.1200 0.1575 0.1915 0.0240 -0.5239 -0.2092 -0.4036 0.0729 -0.1681 0.0485 0.0536 -0.4040 -0.0521 -0.4195 0.4014 -0.2870 0.1008 -0.3330 -0.2236 0.4060 0.5507 0.0842 -0.1792 -0.3300 -0.0364 -0.4965 -0.3302 0.0170 -0.2077 -0.3165 0.2173 0.1027 -0.4048 0.3092 0.2897 0.3131 -0.1885 0.1331 -0.2955 -0.0372 -0.1159 0.2411 0.2121 0.1162 0.3042 0.4919 0.0988 -0.2937 0.0121 0.1364 -0.2127 -0.0269 -0.5261 -0.3441 -0.1624 0.4366 -0.5663 -0.1086 -0.1407 -0.3661 0.0040 0.4535 -0.0975 0.2844 -0.2315 0.3093 0.3351 0.2987 0.1760 -0.0459 -0.0613 -0.3089 0.0927 0.2406 0.3998 -0.2622 0.3290 -0.5813 0.0185 -0.0478 0.1413 -0.2214 -0.2926 0.3210 0.2357 0.2736 0.2424 0.0306 -0.0644 -0.5582 -0.1452 -0.0677 -0.1599 -0.0202 -0.4408 0.1859 -0.0974 0.0575 0.3037 0.2668 0.3000 0.5296 0.0684 -0.2777 -0.3447 0.0247 0.3782 -0.1834 -0.0231 -0.1420 -0.3989 0.2640 0.3353 0.3904 0.0448 -0.4508 0.2600 0.5060 0.0609 -0.5301 -0.0625 -0.2655 -0.3514 0.4168 0.0461 -0.1924 -0.3624 0.0392 -0.5936 0.0575 -0.0122 0.4607 0.0582 -0.1545 0.3902 0.1478 0.2126 0.3176 0.0430 -0.5079 -0.1621 0.2337 -0.3486 -0.1113 0.2743 -0.3251 -0.5499 -0.2198 0.0058 0.4141 -0.3794 0.1709 0.5140 0.1607 -0.0144 0.3671 -0.0029 0.4477 -0.4458 -0.0599 -0.3966 0.0042 -0.1257 0.2841 -0.4237 -0.4234 0.0839 -0.5672 -0.1902 -0.0283 -0.2855 0.0150 0.2359 -0.1310 0.1114 -0.4796 0.2734 0.0345 -0.2263 -0.0466 0.1410 0.1558 -0.2857 -0.3093 0.1039 0.3958 -0.2284 0.3741 -0.5430 0.2315 0.0720 -0.0713 -0.0070 -0.6023 0.3032 -0.0050 0.2809 -0.0106 0.3641 -0.1919 -0.4939 -0.0881 -0.0822 0.4122 0.4136 0.0867 
</DataArray>
<DataArray type="Float32" Name="Velocity" NumberOfComponents="3" format="ascii">
0.0000 0.0000 0.0000 0.0000 0.0000 0.0000 0.0000 0.0000 0.0000 0.0000 0.0000 0.0000 0.0000 0.0000 0.0000 0.0000 0.0000 0.0000 0.0000 0.0000 0.0000 0.0000 0.0000 0.0000 0.0000 0.0000 0.0000 0.0000 0.0000 0.0000 0.0000 0.0000 0.0000 0.0000 0.0000 0.0000 0.0000 0.0000 0.0000 0.0000 0.0000 0.0000 0.0000 0.0000 0.0000 0.0000 0.0000 0.0000 0.0000 0.0000 0.0000 0.0000 0.0000 0.0000 0.0000 0.0000 0.0000 0.0000 0.0000 0.0000 0.0000 0.0000 0.0000 0.0000 0.0000 0.0000 0.0000 0.0000 0.0000 0.0000 0.0000 0.0000 0.0000 0.0000 0.0000 0.0000 0.0000 0.0000 0.0000 0.0000 0.0000 0.0000 0.0000 0.0000 0.0000 0.0000 0.0000 0.0000 0.0000 0.0000 0.0000 0.0000 0.0000 0.0000 0.0000 0.0000 0.0000 0.0000 0.0000 0.0000 0.0000 0.0000 0.0000 0.0000 0.0000 0.0000 0.0000 0.0000 0.0000 0.0000 0.0000 0.0000 0.0000 0.0000 0.0000 0.0000 0.0000 0.0000 0.0000 0.0000 0.0000 0.0000 0.0000 0.0000 0.0000 0.0000 0.0000 0.0000 0.0000 0.0000 0.0000 0.0000 0.0000 0.0000 0.0000 0.0000 0.0000 0.0000 0.0000 0.0000 0.0000 0.0000 0.0000 0.0000 0.0000 0.0000 0.0000 0.0000 0.0000 0.0000 0.0000 0.0000 0.0000 0.0000 0.0000 0.0000 0.0000 0.0000 0.0000 0.0000 0.0000 0.0000 0.0000 0.0000 0.0000 0.0000 0.0000 0.0000 0.0000 0.0000 0.0000 0.0000 0.0000 0.0000 0.0000 0.0000 0.0000 0.0000 0.0000 0.0000 0.0000 0.0000 0.0000 0.0000 0.0000 0.0000 0.0000 0.0000 0.0000 0.0000 0.0000 0.0000 0.0000 0.0000 0.0000 0.0000 0.0000 0.0000 0.0000 0.0000 0.0000 0.0000 0.0000 0.0000 0.0000 0.0000 0.0000 0.0000 0.0000 0.0000 0.0000 0.0000 0.0000 0.0000 0.0000 0.0000 0.0000 0.0000 0.0000 0.0000 0.0000 0.0000 0.0000 0.0000 0.0000 0.0000 0.0000 0.0000 0.0000 0.0000 0.0000 0.0000 0.0000 0.0000 0.0000 0.0000 0.0000 0.0000 0.0000 0.0000 0.0000 0.0000 0.0000 0.0000 0.0000 0.0000 0.0000 0.0000 0.0000 0.0000 0.0000 0.0000 0.0000 0.0000 0.0000 0.0000 0.0000 0.0000 0.0000 0.0000 0.0000 0.0000 0.0000 0.0000 0.0000 0.0000 0.0000 0.0000 0.0000 0.0000 0.0000 0.0000 0.0000 0.0000 0.0000 0.0000 0.0000 0.0000 0.0000 0.0000 0.0000 0.0000 0.0000 0.0000 0.0000 0.0000 0.0000 0.0000 0.0000 0.0000 0.0000 0.0000 0.0000 0.0000 0.0000 0.0000 0.0000 0.0000 0.0000 0.0000 0.0000 0.0000 0.0000 0.0000 0.0000 0.0000 0.0000 0.0000 0.0000 0.0000 0.0000 0.0000 0.0000 0.0000 0.0000 0.0000 0.0000 0.0000 0.0000 0.0000 0.0000 0.0000 0.0000 0.0000 0.0000 0.0000 0.0000 0.0000 0.0000 0.0000 0.0000 0.0000 0.0000 0.0000 0.0000 0.0000 0.0000 0.0000 0.0000 0.0000 0.0000 0.0000 0.0000 0.0000 0.0000 0.0000 0.0000 0.0000 0.0000 0.0000 0.0000 0.0000 0.0000 0.0000 0.0000 0.0000 0.0000 0.0000 0.0000 0.0000 0.0000 0.0000 0.0000 0.0000 0.0000 0.0000 0.0000 0.0000 0.0000 0.0000 0.0000 0.0000 0.0000 0.0000 0.0000 0.0000 0.0000 0.0000 0.0000 0.0000 0.0000 0.0000 0.0000 0.0000 0.0000 0.0000 0.0000 0.0000 0.0000 0.0000 0.0000 0.0000 0.0000 0.0000 0.0000 0.0000 0.0000 0.0000 0.0000 0.0000 0.0000 0.0000 0.0000 0.0000 0.0000 0.0000 0.0000 0.0000 0.0000 0.0000 0.0000 0.0000 0.0000 0.0000 0.0000 0.0000 0.0000 0.0000 0.0000 0.0000 0.0000 0.0000 0.0000 0.0000 0.0000 0.0000 0.0000 0.0000 0.0000 0.0000 0.0000 0.0000 0.0000 0.0000 0.0000 0.0000 0.0000 0.0000 0.0000 0.0000 0.0000 0.0000 0.0000 0.0000 0.0000 0.0000 0.0000 0.0000 0.0000 0.0000 0.0000 0.0000 0.0000 0.0000 0.0000 0.0000 0.0000 0.0000 0.0000 0.0000 0.0000 0.0000 0.0000 0.0000 0.0000 0.0000 0.0000 0.0000 0.0000 0.0000 0.0000 0.0000 0.0000 0.0000 0.0000 0.0000 0.0000 0.0000 0.0000 0.0000 0.0000 0.0000 0.0000 0.0000 0.0000 0.0000 0.0000 0.0000 0.0000 0.0000 0.0000 0.0000 0.0000 0.0000 0.0000 0.0000 0.0000 0.0000 0.0000 0.0000 0.0000 0.0000 0.0000 0.0000 0.0000 0.0000 0.0000 0.0000 0.0000 0.0000 0.0000 0.0000 0.0000 0.0000 0.0000 0.0000 0.0000 0.0000 0.0000 0.0000 0.0000 0.0000 0.0000 0.0000 0.0000 0.0000 0.0000 0.0000 0.0000 0.0000 0.0000 0.0000 0.0000 0.0000 0.0000 0.0000 0.0000 0.0000 0.0000 0.0000 0.0000 0.0000 0.0000 0.0000 0.0000 0.0000 
</DataArray>
<DataArray type="Float32" Name="Radius" NumberOfComponents="1" format="ascii">
0.2836 0.4013 0.1318 0.2016 0.1180 0.3971 0.2083 0.1983 0.2316 0.1830 0.2083 0.3713 0.4684 0.4068 0.0904 0.1829 0.3563 0.0426 0.3370 0.0706 0.0906 0.2770 0.1479 0.2597 0.1799 0.0357 0.2470 0.1111 0.3861 0.1728 0.2415 0.1488 0.1852 0.4082 0.0789 0.3617 0.1983 0.2946 0.1310 0.1777 0.1186 0.0958 0.1461 0.1204 0.1697 0.2266 0.0285 0.2738 0.2145 0.1500 0.0684 0.3210 0.0978 0.3387 0.0725 0.0663 0.3437 0.1516 0.2290 0.0523 0.2101 0.1609 0.0319 0.2682 0.0319 0.0594 0.1467 0.1322 0.2393 0.1851 0.2074 0.1030 0.1359 0.2829 0.0245 0.0362 0.0912 0.0360 0.0578 0.0281 0.2335 0.3751 0.1181 0.0882 0.3214 0.0469 0.0591 0.0801 0.0418 0.0249 0.0686 0.2172 0.0552 0.1891 0.2694 0.2488 0.1514 0.0359 0.0394 0.1545 0.0395 0.0915 0.0982 0.0338 0.4255 0.1590 0.0297 0.2410 0.0967 0.2990 0.0949 0.2044 0.0293 0.2959 0.0623 0.1153 0.4013 0.0394 0.1161 0.0410 0.0430 0.0311 0.1806 0.2180 0.0308 0.2285 0.2693 0.2762 0.0354 0.2923 0.0539 0.0326 0.0331 0.0287 0.1362 0.0691 0.3517 0.2116 0.0355 0.0407 0.1352 0.1315 0.3295 0.0442 0.1371 0.3589 0.1107 0.0280 0.0997 0.3400 0.0311 0.0302 0.0244 0.0339 0.0381 0.1598 0.0273 0.1295 0.1480 0.0285 0.0812 0.0806 0.0313 0.0323 0.0845 0.0343 0.0294 0.1745 0.0162 0.0255 0.2424 0.0492 0.2341 0.2743 0.1852 0.0231 0.0286 0.0249 0.1995 0.0970 0.1169 0.0313 
</DataArray>
</PointData>
<CellData/>
</Piece>
</UnstructuredGrid>
</VTKFile>
