<?xml version="1.0"?>
<VTKFile type="UnstructuredGrid" version="0.1" byte_order="LittleEndian">
 <UnstructuredGrid>
  <Piece NumberOfPoints="182" NumberOfCells="0">
   <Cells>
    <DataArray type="Int32" name="connectivity" format="ascii">
       0
    </DataArray>
    <DataArray type="Float32" name="offset" format="ascii">
       0
    </DataArray>
    <DataArray type="UInt8" name="types" format="ascii">
       1
    </DataArray>
   </Cells>
   <Points>
<DataArray type="Float32" NumberOfComponents="3" format="ascii">
-0.1557 0.0083 -0.1720 -0.0981 0.1451 0.0537 -0.3163 -0.1576 0.1245 0.0525 -0.2756 -0.2767 0.2326 0.4080 0.1718 -0.0449 -0.1078 -0.0710 -0.0643 0.3372 -0.1827 -0.0844 0.4148 -0.0509 -0.2737 0.0445 -0.0646 -0.1072 0.4223 0.0489 -0.0925 0.1937 -0.2824 -0.0898 0.0642 -0.1183 0.0237 0.0423 -0.0139 -0.0181 0.0948 -0.1159 -0.0576 0.3012 -0.4246 -0.1975 -0.1641 0.2072 0.1513 -0.1649 0.0659 0.2053 -0.0939 -0.4456 0.1108 -0.2190 0.1316 -0.4612 0.1263 -0.0126 0.1037 -0.0878 -0.4587 0.1411 -0.2136 -0.0813 0.0458 -0.2402 -0.3847 -0.1130 -0.3029 0.1510 0.2456 0.3331 0.0843 -0.4766 0.2726 0.1934 0.0658 0.2969 0.2059 -0.3041 -0.3889 0.0974 -0.0157 -0.0126 0.0959 -0.3012 -0.0790 -0.1187 0.0878 -0.1564 -0.2585 -0.2428 0.3659 0.1645 0.0720 -0.2977 0.2978 -0.0102 0.1931 0.0713 0.3048 -0.2939 0.3265 0.0487 -0.2506 0.0402 -0.3285 0.2295 0.0963 -0.1271 -0.2189 0.1044 -0.3122 0.3673 0.0848 0.2657 -0.1180 -0.1926 -0.3326 -0.2880 0.0133 0.4346 -0.1214 -0.0121 0.2995 -0.2693 0.2399 -0.3269 -0.2570 0.0716 -0.0531 0.2782 -0.3243 -0.1995 -0.2527 -0.0090 -0.0095 0.0715 -0.5986 -0.0686 -0.1882 0.1850 -0.1695 -0.3376 0.0717 -0.3836 0.1607 0.0308 0.4514 -0.2689 0.1618 0.1145 -0.0763 -0.1643 -0.3840 0.2717 0.2190 0.0027 -0.0154 -0.2142 -0.2532 0.3059 0.3660 0.1003 0.5434 0.0552 0.1232 -0.1138 -0.0888 0.0737 -0.3869 -0.2264 -0.1647 0.3501 0.0605 0.4900 -0.2082 0.0523 -0.0146 0.0761 -0.3733 -0.0869 0.3048 0.3214 -0.0995 0.4959 -0.3151 0.0285 -0.1497 -0.2742 0.0748 -0.3699 -0.4606 -0.0464 0.2437 -0.5036 0.0158 -0.0833 -0.4510 -0.3388 -0.1816 0.0124 -0.2510 -0.0575 0.0242 -0.0425 -0.3001 0.2828 -0.1464 0.2741 0.2611 0.0667 -0.5112 -0.0853 0.0845 -0.4424 -0.1649 -0.1816 -0.0346 0.0971 -0.0284 0.1333 -0.5912 -0.3229 -0.4302 0.2217 0.0298 0.3541 0.3812 0.4038 0.3552 0.0258 -0.0986 0.5162 -0.2200 0.0392 -0.1788 -0.5737 0.1121 0.3570 0.0931 0.0172 -0.1426 0.1079 -0.0561 -0.4980 0.0471 -0.0053 0.0281 -0.5244 0.1628 -0.0319 -0.0955 0.0867 -0.4518 -0.3448 0.4436 -0.3303 0.0953 -0.3824 -0.2225 -0.0650 0.0500 -0.2634 -0.5167 0.0936 -0.5051 -0.3176 -0.1489 -0.3839 0.3558 -0.0314 0.4036 0.0119 0.3118 0.4198 0.2059 -0.0344 0.1803 -0.3637 -0.0582 -0.3341 0.0851 0.2695 -0.0756 0.0026 -0.1202 -0.1491 -0.3391 0.3659 0.4357 0.1299 -0.2317 -0.5280 0.0850 0.3041 0.2488 -0.0019 -0.0770 0.4097 -0.4101 0.2640 -0.4563 0.0510 0.2381 0.3903 0.2430 0.3816 0.4325 0.0924 -0.0859 0.0839 0.0119 0.3326 -0.2577 0.1801 0.0096 -0.0284 -0.5998 0.2261 -0.2887 0.0924 -0.0754 0.3946 -0.3256 0.1500 0.2056 0.0155 0.4441 -0.2446 0.0903 -0.2687 -0.1395 -0.0704 0.0145 -0.1079 -0.5919 0.1261 -0.0927 0.1575 -0.0360 0.1896 -0.5239 0.4159 -0.1834 0.0729 -0.0378 -0.1709 0.0536 0.0774 -0.4000 -0.4195 0.2613 0.4186 0.1008 0.2441 -0.3183 0.4060 -0.1186 0.5443 -0.1792 0.0571 -0.3271 -0.4965 0.0038 -0.3306 -0.2077 -0.1970 -0.3295 0.1027 -0.2832 -0.4234 0.2897 0.1685 0.3243 0.1331 0.0557 -0.2926 -0.1159 -0.2268 0.2273 0.1162 -0.5100 0.2727 0.0988 0.0064 -0.2939 0.1364 0.0402 -0.2106 -0.5261 0.1837 -0.3332 0.4366 0.1439 -0.5583 -0.1407 0.0190 -0.3656 0.4535 -0.2778 -0.1152 -0.2315 -0.3539 0.2877 0.2987 0.0347 0.1785 -0.0613 -0.0731 -0.3141 0.2406 0.2366 0.4155 0.3290 0.0180 -0.5813 -0.0478 0.2121 0.1549 -0.2926 -0.2553 0.3056 0.2736 -0.0458 0.2400 -0.0644 0.1799 -0.5480 -0.0677 0.0302 -0.1583 -0.4408 0.0856 0.1916 0.0575 -0.2854 0.2864 0.3000 -0.1015 0.5243 -0.2777 -0.0030 -0.3456 0.3782 0.0346 -0.1816 -0.1420 -0.2384 -0.4147 0.3353 -0.0692 0.3868 -0.4508 -0.5213 0.2277 0.0609 0.0957 -0.5251 -0.2655 -0.3940 -0.3768 0.0461 0.3737 -0.1693 0.0392 -0.0202 -0.5961 -0.0122 -0.0870 0.4561 -0.1545 -0.1720 0.3802 0.2126 -0.0629 0.3143 -0.5079 -0.2230 -0.1765 -0.3486 -0.2667 -0.1283 -0.3251 0.2539 -0.5350 0.0058 0.3526 0.4371 0.1709 -0.1926 0.5029 -0.0144 -0.0202 0.3666 0.4477 0.0878 -0.4412 -0.3966 0.1252 0.0121 0.2841 0.4491 -0.3962 0.0839 0.2254 -0.5541 -0.0283 0.0029 -0.2859 0.2359 -0.1030 -0.1378 -0.4796 -0.0516 0.2707 -0.2263 -0.1378 -0.0554 0.1558 0.3266 -0.2657 0.1039 0.2031 0.4094 0.3741 -0.1970 -0.5565 0.0720 0.0115 -0.0707 -0.6023 -0.0141 0.3029 0.2809 -0.3627 -0.0335 -0.1919 0.1189 -0.4874 -0.0822 -0.4386 0.3854 0.0867 
</DataArray>
    </Points>
    <PointData>
<DataArray type="Float32" Name="Position" NumberOfComponents="3" format="ascii">
-0.1557 0.0083 -0.1720 -0.0981 0.1451 0.0537 -0.3163 -0.1576 0.1245 0.0525 -0.2756 -0.2767 0.2326 0.4080 0.1718 -0.0449 -0.1078 -0.0710 -0.0643 0.3372 -0.1827 -0.0844 0.4148 -0.0509 -0.2737 0.0445 -0.0646 -0.1072 0.4223 0.0489 -0.0925 0.1937 -0.2824 -0.0898 0.0642 -0.1183 0.0237 0.0423 -0.0139 -0.0181 0.0948 -0.1159 -0.0576 0.3012 -0.4246 -0.1975 -0.1641 0.2072 0.1513 -0.1649 0.0659 0.2053 -0.0939 -0.4456 0.1108 -0.2190 0.1316 -0.4612 0.1263 -0.0126 0.1037 -0.0878 -0.4587 0.1411 -0.2136 -0.0813 0.0458 -0.2402 -0.3847 -0.1130 -0.3029 0.1510 0.2456 0.3331 0.0843 -0.4766 0.2726 0.1934 0.0658 0.2969 0.2059 -0.3041 -0.3889 0.0974 -0.0157 -0.0126 0.0959 -0.3012 -0.0790 -0.1187 0.0878 -0.1564 -0.2585 -0.2428 0.3659 0.1645 0.0720 -0.2977 0.2978 -0.0102 0.1931 0.0713 0.3048 -0.2939 0.3265 0.0487 -0.2506 0.0402 -0.3285 0.2295 0.0963 -0.1271 -0.2189 0.1044 -0.3122 0.3673 0.0848 0.2657 -0.1180 -0.1926 -0.3326 -0.2880 0.0133 0.4346 -0.1214 -0.0121 0.2995 -0.2693 0.2399 -0.3269 -0.2570 0.0716 -0.0531 0.2782 -0.3243 -0.1995 -0.2527 -0.0090 -0.0095 0.0715 -0.5986 -0.0686 -0.1882 0.1850 -0.1695 -0.3376 0.0717 -0.3836 0.1607 0.0308 0.4514 -0.2689 0.1618 0.1145 -0.0763 -0.1643 -0.3840 0.2717 0.2190 0.0027 -0.0154 -0.2142 -0.2532 0.3059 0.3660 0.1003 0.5434 0.0552 0.1232 -0.1138 -0.0888 0.0737 -0.3869 -0.2264 -0.1647 0.3501 0.0605 0.4900 -0.2082 0.0523 -0.0146 0.0761 -0.3733 -0.0869 0.3048 0.3214 -0.0995 0.4959 -0.3151 0.0285 -0.1497 -0.2742 0.0748 -0.3699 -0.4606 -0.0464 0.2437 -0.5036 0.0158 -0.0833 -0.4510 -0.3388 -0.1816 0.0124 -0.2510 -0.0575 0.0242 -0.0425 -0.3001 0.2828 -0.1464 0.2741 0.2611 0.0667 -0.5112 -0.0853 0.0845 -0.4424 -0.1649 -0.1816 -0.0346 0.0971 -0.0284 0.1333 -0.5912 -0.3229 -0.4302 0.2217 0.0298 0.3541 0.3812 0.4038 0.3552 0.0258 -0.0986 0.5162 -0.2200 0.0392 -0.1788 -0.5737 0.1121 0.3570 0.0931 0.0172 -0.1426 0.1079 -0.0561 -0.4980 0.0471 -0.0053 0.0281 -0.5244 0.1628 -0.0319 -0.0955 0.0867 -0.4518 -0.3448 0.4436 -0.3303 0.0953 -0.3824 -0.2225 -0.0650 0.0500 -0.2634 -0.5167 0.0936 -0.5051 -0.3176 -0.1489 -0.3839 0.3558 -0.0314 0.4036 0.0119 0.3118 0.4198 0.2059 -0.0344 0.1803 -0.3637 -0.0582 -0.3341 0.0851 0.2695 -0.0756 0.0026 -0.1202 -0.1491 -0.3391 0.3659 0.4357 0.1299 -0.2317 -0.5280 0.0850 0.3041 0.2488 -0.0019 -0.0770 0.4097 -0.4101 0.2640 -0.4563 0.0510 0.2381 0.3903 0.2430 0.3816 0.4325 0.0924 -0.0859 0.0839 0.0119 0.3326 -0.2577 0.1801 0.0096 -0.0284 -0.5998 0.2261 -0.2887 0.0924 -0.0754 0.3946 -0.3256 0.1500 0.2056 0.0155 0.4441 -0.2446 0.0903 -0.2687 -0.1395 -0.0704 0.0145 -0.1079 -0.5919 0.1261 -0.0927 0.1575 -0.0360 0.1896 -0.5239 0.4159 -0.1834 0.0729 -0.0378 -0.1709 0.0536 0.0774 -0.4000 -0.4195 0.2613 0.4186 0.1008 0.2441 -0.3183 0.4060 -0.1186 0.5443 -0.1792 0.0571 -0.3271 -0.4965 0.0038 -0.3306 -0.2077 -0.1970 -0.3295 0.1027 -0.2832 -0.4234 0.2897 0.1685 0.3243 0.1331 0.0557 -0.2926 -0.1159 -0.2268 0.2273 0.1162 -0.5100 0.2727 0.0988 0.0064 -0.2939 0.1364 0.0402 -0.2106 -0.5261 0.1837 -0.3332 0.4366 0.1439 -0.5583 -0.1407 0.0190 -0.3656 0.4535 -0.2778 -0.1152 -0.2315 -0.3539 0.2877 0.2987 0.0347 0.1785 -0.0613 -0.0731 -0.3141 0.2406 0.2366 0.4155 0.3290 0.0180 -0.5813 -0.0478 0.2121 0.1549 -0.2926 -0.2553 0.3056 0.2736 -0.0458 0.2400 -0.0644 0.1799 -0.5480 -0.0677 0.0302 -0.1583 -0.4408 0.0856 0.1916 0.0575 -0.2854 0.2864 0.3000 -0.1015 0.5243 -0.2777 -0.0030 -0.3456 0.3782 0.0346 -0.1816 -0.1420 -0.2384 -0.4147 0.3353 -0.0692 0.3868 -0.4508 -0.5213 0.2277 0.0609 0.0957 -0.5251 -0.2655 -0.3940 -0.3768 0.0461 0.3737 -0.1693 0.0392 -0.0202 -0.5961 -0.0122 -0.0870 0.4561 -0.1545 -0.1720 0.3802 0.2126 -0.0629 0.3143 -0.5079 -0.2230 -0.1765 -0.3486 -0.2667 -0.1283 -0.3251 0.2539 -0.5350 0.0058 0.3526 0.4371 0.1709 -0.1926 0.5029 -0.0144 -0.0202 0.3666 0.4477 0.0878 -0.4412 -0.3966 0.1252 0.0121 0.2841 0.4491 -0.3962 0.0839 0.2254 -0.5541 -0.0283 0.0029 -0.2859 0.2359 -0.1030 -0.1378 -0.4796 -0.0516 0.2707 -0.2263 -0.1378 -0.0554 0.1558 0.3266 -0.2657 0.1039 0.2031 0.4094 0.3741 -0.1970 -0.5565 0.0720 0.0115 -0.0707 -0.6023 -0.0141 0.3029 0.2809 -0.3627 -0.0335 -0.1919 0.1189 -0.4874 -0.0822 -0.4386 0.3854 0.0867 
</DataArray>
<DataArray type="Float32" Name="Velocity" NumberOfComponents="3" format="ascii">
0.0000 0.0000 0.0000 0.0000 0.0000 0.0000 0.0000 0.0000 0.0000 0.0000 0.0000 0.0000 0.0000 0.0000 0.0000 0.0000 0.0000 0.0000 0.0000 0.0000 0.0000 0.0000 0.0000 0.0000 0.0000 0.0000 0.0000 0.0000 0.0000 0.0000 0.0000 0.0000 0.0000 0.0000 0.0000 0.0000 0.0000 0.0000 0.0000 0.0000 0.0000 0.0000 0.0000 0.0000 0.0000 0.0000 0.0000 0.0000 0.0000 0.0000 0.0000 0.0000 0.0000 0.0000 0.0000 0.0000 0.0000 0.0000 0.0000 0.0000 0.0000 0.0000 0.0000 0.0000 0.0000 0.0000 0.0000 0.0000 0.0000 0.0000 0.0000 0.0000 0.0000 0.0000 0.0000 0.0000 0.0000 0.0000 0.0000 0.0000 0.0000 0.0000 0.0000 0.0000 0.0000 0.0000 0.0000 0.0000 0.0000 0.0000 0.0000 0.0000 0.0000 0.0000 0.0000 0.0000 0.0000 0.0000 0.0000 0.0000 0.0000 0.0000 0.0000 0.0000 0.0000 0.0000 0.0000 0.0000 0.0000 0.0000 0.0000 0.0000 0.0000 0.0000 0.0000 0.0000 0.0000 0.0000 0.0000 0.0000 0.0000 0.0000 0.0000 0.0000 0.0000 0.0000 0.0000 0.0000 0.0000 0.0000 0.0000 0.0000 0.0000 0.0000 0.0000 0.0000 0.0000 0.0000 0.0000 0.0000 0.0000 0.0000 0.0000 0.0000 0.0000 0.0000 0.0000 0.0000 0.0000 0.0000 0.0000 0.0000 0.0000 0.0000 0.0000 0.0000 0.0000 0.0000 0.0000 0.0000 0.0000 0.0000 0.0000 0.0000 0.0000 0.0000 0.0000 0.0000 0.0000 0.0000 0.0000 0.0000 0.0000 0.0000 0.0000 0.0000 0.0000 0.0000 0.0000 0.0000 0.0000 0.0000 0.0000 0.0000 0.0000 0.0000 0.0000 0.0000 0.0000 0.0000 0.0000 0.0000 0.0000 0.0000 0.0000 0.0000 0.0000 0.0000 0.0000 0.0000 0.0000 0.0000 0.0000 0.0000 0.0000 0.0000 0.0000 0.0000 0.0000 0.0000 0.0000 0.0000 0.0000 0.0000 0.0000 0.0000 0.0000 0.0000 0.0000 0.0000 0.0000 0.0000 0.0000 0.0000 0.0000 0.0000 0.0000 0.0000 0.0000 0.0000 0.0000 0.0000 0.0000 0.0000 0.0000 0.0000 0.0000 0.0000 0.0000 0.0000 0.0000 0.0000 0.0000 0.0000 0.0000 0.0000 0.0000 0.0000 0.0000 0.0000 0.0000 0.0000 0.0000 0.0000 0.0000 0.0000 0.0000 0.0000 0.0000 0.0000 0.0000 0.0000 0.0000 0.0000 0.0000 0.0000 0.0000 0.0000 0.0000 0.0000 0.0000 0.0000 0.0000 0.0000 0.0000 0.0000 0.0000 0.0000 0.0000 0.0000 0.0000 0.0000 0.0000 0.0000 0.0000 0.0000 0.0000 0.0000 0.0000 0.0000 0.0000 0.0000 0.0000 0.0000 0.0000 0.0000 0.0000 0.0000 0.0000 0.0000 0.0000 0.0000 0.0000 0.0000 0.0000 0.0000 0.0000 0.0000 0.0000 0.0000 0.0000 0.0000 0.0000 0.0000 0.0000 0.0000 0.0000 0.0000 0.0000 0.0000 0.0000 0.0000 0.0000 0.0000 0.0000 0.0000 0.0000 0.0000 0.0000 0.0000 0.0000 0.0000 0.0000 0.0000 0.0000 0.0000 0.0000 0.0000 0.0000 0.0000 0.0000 0.0000 0.0000 0.0000 0.0000 0.0000 0.0000 0.0000 0.0000 0.0000 0.0000 0.0000 0.0000 0.0000 0.0000 0.0000 0.0000 0.0000 0.0000 0.0000 0.0000 0.0000 0.0000 0.0000 0.0000 0.0000 0.0000 0.0000 0.0000 0.0000 0.0000 0.0000 0.0000 0.0000 0.0000 0.0000 0.0000 0.0000 0.0000 0.0000 0.0000 0.0000 0.0000 0.0000 0.0000 0.0000 0.0000 0.0000 0.0000 0.0000 0.0000 0.0000 0.0000 0.0000 0.0000 0.0000 0.0000 0.0000 0.0000 0.0000 0.0000 0.0000 0.0000 0.0000 0.0000 0.0000 0.0000 0.0000 0.0000 0.0000 0.0000 0.0000 0.0000 0.0000 0.0000 0.0000 0.0000 0.0000 0.0000 0.0000 0.0000 0.0000 0.0000 0.0000 0.0000 0.0000 0.0000 0.0000 0.0000 0.0000 0.0000 0.0000 0.0000 0.0000 0.0000 0.0000 0.0000 0.0000 0.0000 0.0000 0.0000 0.0000 0.0000 0.0000 0.0000 0.0000 0.0000 0.0000 0.0000 0.0000 0.0000 0.0000 0.0000 0.0000 0.0000 0.0000 0.0000 0.0000 0.0000 0.0000 0.0000 0.0000 0.0000 0.0000 0.0000 0.0000 0.0000 0.0000 0.0000 0.0000 0.0000 0.0000 0.0000 0.0000 0.0000 0.0000 0.0000 0.0000 0.0000 0.0000 0.0000 0.0000 0.0000 0.0000 0.0000 0.0000 0.0000 0.0000 0.0000 0.0000 0.0000 0.0000 0.0000 0.0000 0.0000 0.0000 0.0000 0.0000 0.0000 0.0000 0.0000 0.0000 0.0000 0.0000 0.0000 0.0000 0.0000 0.0000 0.0000 0.0000 0.0000 0.0000 0.0000 0.0000 0.0000 0.0000 0.0000 0.0000 0.0000 0.0000 0.0000 0.0000 0.0000 0.0000 0.0000 0.0000 0.0000 0.0000 0.0000 0.0000 0.0000 0.0000 0.0000 0.0000 0.0000 0.0000 0.0000 0.0000 0.0000 0.0000 0.0000 0.0000 0.0000 0.0000 0.0000 0.0000 
</DataArray>
<DataArray type="Float32" Name="Radius" NumberOfComponents="1" format="ascii">
0.2836 0.4013 0.1318 0.2016 0.1180 0.3971 0.2083 0.1983 0.2316 0.1830 0.2083 0.3713 0.4684 0.4068 0.0904 0.1829 0.3563 0.0426 0.3370 0.0706 0.0906 0.2770 0.1479 0.2597 0.1799 0.0357 0.2470 0.1111 0.3861 0.1728 0.2415 0.1488 0.1852 0.4082 0.0789 0.3617 0.1983 0.2946 0.1310 0.1777 0.1186 0.0958 0.1461 0.1204 0.1697 0.2266 0.0285 0.2738 0.2145 0.1500 0.0684 0.3210 0.0978 0.3387 0.0725 0.0663 0.3437 0.1516 0.2290 0.0523 0.2101 0.1609 0.0319 0.2682 0.0319 0.0594 0.1467 0.1322 0.2393 0.1851 0.2074 0.1030 0.1359 0.2829 0.0245 0.0362 0.0912 0.0360 0.0578 0.0281 0.2335 0.3751 0.1181 0.0882 0.3214 0.0469 0.0591 0.0801 0.0418 0.0249 0.0686 0.2172 0.0552 0.1891 0.2694 0.2488 0.1514 0.0359 0.0394 0.1545 0.0395 0.0915 0.0982 0.0338 0.4255 0.1590 0.0297 0.2410 0.0967 0.2990 0.0949 0.2044 0.0293 0.2959 0.0623 0.1153 0.4013 0.0394 0.1161 0.0410 0.0430 0.0311 0.1806 0.2180 0.0308 0.2285 0.2693 0.2762 0.0354 0.2923 0.0539 0.0326 0.0331 0.0287 0.1362 0.0691 0.3517 0.2116 0.0355 0.0407 0.1352 0.1315 0.3295 0.0442 0.1371 0.3589 0.1107 0.0280 0.0997 0.3400 0.0311 0.0302 0.0244 0.0339 0.0381 0.1598 0.0273 0.1295 0.1480 0.0285 0.0812 0.0806 0.0313 0.0323 0.0845 0.0343 0.0294 0.1745 0.0162 0.0255 0.2424 0.0492 0.2341 0.2743 0.1852 0.0231 0.0286 0.0249 0.1995 0.0970 0.1169 0.0313 
</DataArray>
</PointData>
<CellData/>
</Piece>
</UnstructuredGrid>
</VTKFile>
