<?xml version="1.0"?>
<VTKFile type="UnstructuredGrid" version="0.1" byte_order="LittleEndian">
 <UnstructuredGrid>
  <Piece NumberOfPoints="182" NumberOfCells="0">
   <Cells>
    <DataArray type="Int32" name="connectivity" format="ascii">
       0
    </DataArray>
    <DataArray type="Float32" name="offset" format="ascii">
       0
    </DataArray>
    <DataArray type="UInt8" name="types" format="ascii">
       1
    </DataArray>
   </Cells>
   <Points>
<DataArray type="Float32" NumberOfComponents="3" format="ascii">
0.1324 -0.0823 -0.1720 0.0160 -0.1744 0.0537 0.3531 -0.0143 0.1245 0.0868 0.2669 -0.2767 -0.4004 -0.2455 0.1718 0.0913 0.0728 -0.0710 -0.1061 -0.3265 -0.1827 -0.1259 -0.4041 -0.0509 0.2184 -0.1709 -0.0646 -0.1094 -0.4217 0.0489 -0.0122 -0.2143 -0.2824 0.0477 -0.0995 -0.1183 -0.0412 -0.0257 -0.0139 -0.0298 -0.0918 -0.1159 -0.0947 -0.2917 -0.4246 0.2522 0.0487 0.2072 -0.0531 0.2174 0.0659 -0.1346 0.1811 -0.4456 0.0084 0.2453 0.1316 0.3433 -0.3328 -0.0126 -0.0486 0.1269 -0.4587 -0.0207 0.2551 -0.0813 0.0756 0.2326 -0.3847 0.2450 0.2110 0.1510 -0.3757 -0.1736 0.0843 0.2863 -0.4685 0.1934 -0.2006 -0.2285 0.2059 0.4539 0.1943 0.0974 0.0198 0.0035 0.0959 0.3020 -0.0759 -0.1187 -0.0016 0.1793 -0.2585 0.0365 -0.4376 0.1645 0.0803 0.2956 0.2978 -0.0841 -0.1741 0.0713 -0.1255 0.4044 0.3265 0.0781 0.2431 0.0402 0.1773 -0.3593 0.0963 0.2168 0.1305 0.1044 0.0966 -0.4723 0.0848 -0.1759 0.2314 -0.1926 0.4302 0.0922 0.0133 -0.3223 0.3158 -0.0121 -0.1328 0.3803 0.2399 0.4103 0.0677 0.0716 -0.0875 -0.2693 -0.3243 0.2965 0.1253 -0.0090 -0.0261 -0.0672 -0.5986 0.1508 0.1319 0.1850 0.3112 0.2141 0.0717 0.2588 -0.3256 0.0308 -0.2660 0.4531 0.1618 -0.0636 0.1220 -0.1643 0.2056 -0.4231 0.2190 0.0050 0.0148 -0.2142 0.0745 -0.3900 0.3660 -0.3497 -0.4279 0.0552 -0.0531 0.1591 -0.0888 0.1218 0.3746 -0.2264 -0.0244 -0.3861 0.0605 -0.3291 0.4185 0.0523 -0.0239 -0.0737 -0.3733 -0.0706 -0.3089 0.3214 -0.1517 -0.4825 -0.3151 0.0471 0.1450 -0.2742 0.1127 0.3601 -0.4606 -0.0768 -0.2359 -0.5036 0.0263 0.0806 -0.4510 0.3844 -0.0041 0.0124 0.2477 -0.0705 0.0242 0.1818 0.2425 0.2828 -0.0037 -0.3107 0.2611 0.1878 0.4801 -0.0853 0.1391 0.4284 -0.1649 0.1758 -0.0572 0.0971 -0.0393 -0.1305 -0.5912 0.4902 0.2214 0.2217 -0.1967 -0.2959 0.3812 -0.5249 -0.1168 0.0258 -0.1623 -0.4999 -0.2200 0.0518 0.1756 -0.5737 -0.2702 -0.2589 0.0931 0.0536 0.1333 0.1079 0.2891 0.4094 0.0471 -0.0089 -0.0272 -0.5244 -0.1273 0.1063 -0.0955 0.1417 0.4377 -0.3448 -0.2296 0.5031 0.0953 0.4423 0.0108 -0.0650 0.0831 0.2549 -0.5167 0.1614 0.4877 -0.3176 0.3154 0.2647 0.3558 -0.1669 -0.3688 0.0119 -0.4754 -0.2176 0.2059 -0.0567 -0.1746 -0.3637 0.2119 0.2647 0.0851 -0.1997 0.1961 0.0026 0.1772 0.0728 -0.3391 -0.5305 -0.2055 0.1299 0.4574 0.3511 0.0850 -0.3864 -0.0715 -0.0019 -0.1299 -0.3961 -0.4101 -0.0115 0.5271 0.0510 -0.3967 -0.2273 0.2430 -0.5427 -0.1951 0.0924 0.0349 -0.1149 0.0119 -0.1673 0.3861 0.1801 0.0053 0.0295 -0.5998 -0.0590 0.3619 0.0924 -0.1240 -0.3821 -0.3256 -0.2305 -0.1079 0.0155 -0.2714 0.4283 0.0903 0.3027 -0.0072 -0.0704 0.0393 0.1015 -0.5919 -0.0658 0.1420 0.1575 -0.0598 -0.1835 -0.5239 -0.2761 0.3611 0.0729 0.1155 0.1315 0.0536 0.1249 0.3877 -0.4195 -0.4306 -0.2409 0.1008 -0.0606 0.3965 0.4060 -0.1583 -0.5341 -0.1792 0.1076 0.3141 -0.4965 0.1559 0.2915 -0.2077 0.3314 0.1939 0.1027 0.4521 0.2346 0.2897 -0.3039 -0.2030 0.1331 0.0922 0.2832 -0.1159 0.0892 -0.3084 0.1162 0.3155 -0.4847 0.0988 0.1360 0.2606 0.1364 0.0662 0.2039 -0.5261 -0.0005 0.3805 0.4366 0.1429 0.5586 -0.1407 0.1595 0.3295 0.4535 0.2989 -0.0329 -0.2315 0.1715 -0.4226 0.2987 -0.1164 -0.1397 -0.0613 0.2154 0.2400 0.2406 -0.4075 -0.2501 0.3290 0.2642 0.5181 -0.0478 -0.2605 -0.0336 -0.2926 0.0766 -0.3908 0.2736 -0.0755 -0.2323 -0.0644 0.1063 0.5669 -0.0677 0.0498 0.1533 -0.4408 -0.1673 -0.1267 0.0575 0.1121 -0.3884 0.3000 -0.1636 -0.5084 -0.2777 0.1691 0.3014 0.3782 0.0572 0.1758 -0.1420 0.4087 0.2485 0.3353 -0.1257 -0.3723 -0.4508 0.3472 -0.4507 0.0609 0.1691 0.5063 -0.2655 0.5268 0.1404 0.0461 -0.2459 0.3284 0.0392 0.3048 0.5126 -0.0122 -0.1435 -0.4416 -0.1545 -0.0324 -0.4160 0.2126 -0.0963 -0.3057 -0.5079 0.2805 0.0472 -0.3486 0.2956 -0.0161 -0.3251 0.0352 0.5911 0.0058 -0.5196 -0.2131 0.1709 -0.0735 -0.5334 -0.0144 -0.1589 -0.3310 0.4477 0.1356 0.4289 -0.3966 -0.1155 0.0497 0.2841 -0.2027 0.5636 0.0839 0.0694 0.5942 -0.0283 0.1351 0.2519 0.2359 0.1566 0.0711 -0.4796 -0.0852 -0.2620 -0.2263 0.1474 -0.0178 0.1558 -0.1582 0.3902 0.1039 -0.3752 -0.2609 0.3741 0.4407 0.3928 0.0720 0.0240 0.0675 -0.6023 -0.1336 -0.2722 0.2809 0.3340 -0.1454 -0.1919 0.1306 0.4844 -0.0822 0.1987 -0.5491 0.0867 
</DataArray>
    </Points>
    <PointData>
<DataArray type="Float32" Name="Position" NumberOfComponents="3" format="ascii">
0.1324 -0.0823 -0.1720 0.0160 -0.1744 0.0537 0.3531 -0.0143 0.1245 0.0868 0.2669 -0.2767 -0.4004 -0.2455 0.1718 0.0913 0.0728 -0.0710 -0.1061 -0.3265 -0.1827 -0.1259 -0.4041 -0.0509 0.2184 -0.1709 -0.0646 -0.1094 -0.4217 0.0489 -0.0122 -0.2143 -0.2824 0.0477 -0.0995 -0.1183 -0.0412 -0.0257 -0.0139 -0.0298 -0.0918 -0.1159 -0.0947 -0.2917 -0.4246 0.2522 0.0487 0.2072 -0.0531 0.2174 0.0659 -0.1346 0.1811 -0.4456 0.0084 0.2453 0.1316 0.3433 -0.3328 -0.0126 -0.0486 0.1269 -0.4587 -0.0207 0.2551 -0.0813 0.0756 0.2326 -0.3847 0.2450 0.2110 0.1510 -0.3757 -0.1736 0.0843 0.2863 -0.4685 0.1934 -0.2006 -0.2285 0.2059 0.4539 0.1943 0.0974 0.0198 0.0035 0.0959 0.3020 -0.0759 -0.1187 -0.0016 0.1793 -0.2585 0.0365 -0.4376 0.1645 0.0803 0.2956 0.2978 -0.0841 -0.1741 0.0713 -0.1255 0.4044 0.3265 0.0781 0.2431 0.0402 0.1773 -0.3593 0.0963 0.2168 0.1305 0.1044 0.0966 -0.4723 0.0848 -0.1759 0.2314 -0.1926 0.4302 0.0922 0.0133 -0.3223 0.3158 -0.0121 -0.1328 0.3803 0.2399 0.4103 0.0677 0.0716 -0.0875 -0.2693 -0.3243 0.2965 0.1253 -0.0090 -0.0261 -0.0672 -0.5986 0.1508 0.1319 0.1850 0.3112 0.2141 0.0717 0.2588 -0.3256 0.0308 -0.2660 0.4531 0.1618 -0.0636 0.1220 -0.1643 0.2056 -0.4231 0.2190 0.0050 0.0148 -0.2142 0.0745 -0.3900 0.3660 -0.3497 -0.4279 0.0552 -0.0531 0.1591 -0.0888 0.1218 0.3746 -0.2264 -0.0244 -0.3861 0.0605 -0.3291 0.4185 0.0523 -0.0239 -0.0737 -0.3733 -0.0706 -0.3089 0.3214 -0.1517 -0.4825 -0.3151 0.0471 0.1450 -0.2742 0.1127 0.3601 -0.4606 -0.0768 -0.2359 -0.5036 0.0263 0.0806 -0.4510 0.3844 -0.0041 0.0124 0.2477 -0.0705 0.0242 0.1818 0.2425 0.2828 -0.0037 -0.3107 0.2611 0.1878 0.4801 -0.0853 0.1391 0.4284 -0.1649 0.1758 -0.0572 0.0971 -0.0393 -0.1305 -0.5912 0.4902 0.2214 0.2217 -0.1967 -0.2959 0.3812 -0.5249 -0.1168 0.0258 -0.1623 -0.4999 -0.2200 0.0518 0.1756 -0.5737 -0.2702 -0.2589 0.0931 0.0536 0.1333 0.1079 0.2891 0.4094 0.0471 -0.0089 -0.0272 -0.5244 -0.1273 0.1063 -0.0955 0.1417 0.4377 -0.3448 -0.2296 0.5031 0.0953 0.4423 0.0108 -0.0650 0.0831 0.2549 -0.5167 0.1614 0.4877 -0.3176 0.3154 0.2647 0.3558 -0.1669 -0.3688 0.0119 -0.4754 -0.2176 0.2059 -0.0567 -0.1746 -0.3637 0.2119 0.2647 0.0851 -0.1997 0.1961 0.0026 0.1772 0.0728 -0.3391 -0.5305 -0.2055 0.1299 0.4574 0.3511 0.0850 -0.3864 -0.0715 -0.0019 -0.1299 -0.3961 -0.4101 -0.0115 0.5271 0.0510 -0.3967 -0.2273 0.2430 -0.5427 -0.1951 0.0924 0.0349 -0.1149 0.0119 -0.1673 0.3861 0.1801 0.0053 0.0295 -0.5998 -0.0590 0.3619 0.0924 -0.1240 -0.3821 -0.3256 -0.2305 -0.1079 0.0155 -0.2714 0.4283 0.0903 0.3027 -0.0072 -0.0704 0.0393 0.1015 -0.5919 -0.0658 0.1420 0.1575 -0.0598 -0.1835 -0.5239 -0.2761 0.3611 0.0729 0.1155 0.1315 0.0536 0.1249 0.3877 -0.4195 -0.4306 -0.2409 0.1008 -0.0606 0.3965 0.4060 -0.1583 -0.5341 -0.1792 0.1076 0.3141 -0.4965 0.1559 0.2915 -0.2077 0.3314 0.1939 0.1027 0.4521 0.2346 0.2897 -0.3039 -0.2030 0.1331 0.0922 0.2832 -0.1159 0.0892 -0.3084 0.1162 0.3155 -0.4847 0.0988 0.1360 0.2606 0.1364 0.0662 0.2039 -0.5261 -0.0005 0.3805 0.4366 0.1429 0.5586 -0.1407 0.1595 0.3295 0.4535 0.2989 -0.0329 -0.2315 0.1715 -0.4226 0.2987 -0.1164 -0.1397 -0.0613 0.2154 0.2400 0.2406 -0.4075 -0.2501 0.3290 0.2642 0.5181 -0.0478 -0.2605 -0.0336 -0.2926 0.0766 -0.3908 0.2736 -0.0755 -0.2323 -0.0644 0.1063 0.5669 -0.0677 0.0498 0.1533 -0.4408 -0.1673 -0.1267 0.0575 0.1121 -0.3884 0.3000 -0.1636 -0.5084 -0.2777 0.1691 0.3014 0.3782 0.0572 0.1758 -0.1420 0.4087 0.2485 0.3353 -0.1257 -0.3723 -0.4508 0.3472 -0.4507 0.0609 0.1691 0.5063 -0.2655 0.5268 0.1404 0.0461 -0.2459 0.3284 0.0392 0.3048 0.5126 -0.0122 -0.1435 -0.4416 -0.1545 -0.0324 -0.4160 0.2126 -0.0963 -0.3057 -0.5079 0.2805 0.0472 -0.3486 0.2956 -0.0161 -0.3251 0.0352 0.5911 0.0058 -0.5196 -0.2131 0.1709 -0.0735 -0.5334 -0.0144 -0.1589 -0.3310 0.4477 0.1356 0.4289 -0.3966 -0.1155 0.0497 0.2841 -0.2027 0.5636 0.0839 0.0694 0.5942 -0.0283 0.1351 0.2519 0.2359 0.1566 0.0711 -0.4796 -0.0852 -0.2620 -0.2263 0.1474 -0.0178 0.1558 -0.1582 0.3902 0.1039 -0.3752 -0.2609 0.3741 0.4407 0.3928 0.0720 0.0240 0.0675 -0.6023 -0.1336 -0.2722 0.2809 0.3340 -0.1454 -0.1919 0.1306 0.4844 -0.0822 0.1987 -0.5491 0.0867 
</DataArray>
<DataArray type="Float32" Name="Velocity" NumberOfComponents="3" format="ascii">
0.0000 0.0000 0.0000 0.0000 0.0000 0.0000 0.0000 0.0000 0.0000 0.0000 0.0000 0.0000 0.0000 0.0000 0.0000 0.0000 0.0000 0.0000 0.0000 0.0000 0.0000 0.0000 0.0000 0.0000 0.0000 0.0000 0.0000 0.0000 0.0000 0.0000 0.0000 0.0000 0.0000 0.0000 0.0000 0.0000 0.0000 0.0000 0.0000 0.0000 0.0000 0.0000 0.0000 0.0000 0.0000 0.0000 0.0000 0.0000 0.0000 0.0000 0.0000 0.0000 0.0000 0.0000 0.0000 0.0000 0.0000 0.0000 0.0000 0.0000 0.0000 0.0000 0.0000 0.0000 0.0000 0.0000 0.0000 0.0000 0.0000 0.0000 0.0000 0.0000 0.0000 0.0000 0.0000 0.0000 0.0000 0.0000 0.0000 0.0000 0.0000 0.0000 0.0000 0.0000 0.0000 0.0000 0.0000 0.0000 0.0000 0.0000 0.0000 0.0000 0.0000 0.0000 0.0000 0.0000 0.0000 0.0000 0.0000 0.0000 0.0000 0.0000 0.0000 0.0000 0.0000 0.0000 0.0000 0.0000 0.0000 0.0000 0.0000 0.0000 0.0000 0.0000 0.0000 0.0000 0.0000 0.0000 0.0000 0.0000 0.0000 0.0000 0.0000 0.0000 0.0000 0.0000 0.0000 0.0000 0.0000 0.0000 0.0000 0.0000 0.0000 0.0000 0.0000 0.0000 0.0000 0.0000 0.0000 0.0000 0.0000 0.0000 0.0000 0.0000 0.0000 0.0000 0.0000 0.0000 0.0000 0.0000 0.0000 0.0000 0.0000 0.0000 0.0000 0.0000 0.0000 0.0000 0.0000 0.0000 0.0000 0.0000 0.0000 0.0000 0.0000 0.0000 0.0000 0.0000 0.0000 0.0000 0.0000 0.0000 0.0000 0.0000 0.0000 0.0000 0.0000 0.0000 0.0000 0.0000 0.0000 0.0000 0.0000 0.0000 0.0000 0.0000 0.0000 0.0000 0.0000 0.0000 0.0000 0.0000 0.0000 0.0000 0.0000 0.0000 0.0000 0.0000 0.0000 0.0000 0.0000 0.0000 0.0000 0.0000 0.0000 0.0000 0.0000 0.0000 0.0000 0.0000 0.0000 0.0000 0.0000 0.0000 0.0000 0.0000 0.0000 0.0000 0.0000 0.0000 0.0000 0.0000 0.0000 0.0000 0.0000 0.0000 0.0000 0.0000 0.0000 0.0000 0.0000 0.0000 0.0000 0.0000 0.0000 0.0000 0.0000 0.0000 0.0000 0.0000 0.0000 0.0000 0.0000 0.0000 0.0000 0.0000 0.0000 0.0000 0.0000 0.0000 0.0000 0.0000 0.0000 0.0000 0.0000 0.0000 0.0000 0.0000 0.0000 0.0000 0.0000 0.0000 0.0000 0.0000 0.0000 0.0000 0.0000 0.0000 0.0000 0.0000 0.0000 0.0000 0.0000 0.0000 0.0000 0.0000 0.0000 0.0000 0.0000 0.0000 0.0000 0.0000 0.0000 0.0000 0.0000 0.0000 0.0000 0.0000 0.0000 0.0000 0.0000 0.0000 0.0000 0.0000 0.0000 0.0000 0.0000 0.0000 0.0000 0.0000 0.0000 0.0000 0.0000 0.0000 0.0000 0.0000 0.0000 0.0000 0.0000 0.0000 0.0000 0.0000 0.0000 0.0000 0.0000 0.0000 0.0000 0.0000 0.0000 0.0000 0.0000 0.0000 0.0000 0.0000 0.0000 0.0000 0.0000 0.0000 0.0000 0.0000 0.0000 0.0000 0.0000 0.0000 0.0000 0.0000 0.0000 0.0000 0.0000 0.0000 0.0000 0.0000 0.0000 0.0000 0.0000 0.0000 0.0000 0.0000 0.0000 0.0000 0.0000 0.0000 0.0000 0.0000 0.0000 0.0000 0.0000 0.0000 0.0000 0.0000 0.0000 0.0000 0.0000 0.0000 0.0000 0.0000 0.0000 0.0000 0.0000 0.0000 0.0000 0.0000 0.0000 0.0000 0.0000 0.0000 0.0000 0.0000 0.0000 0.0000 0.0000 0.0000 0.0000 0.0000 0.0000 0.0000 0.0000 0.0000 0.0000 0.0000 0.0000 0.0000 0.0000 0.0000 0.0000 0.0000 0.0000 0.0000 0.0000 0.0000 0.0000 0.0000 0.0000 0.0000 0.0000 0.0000 0.0000 0.0000 0.0000 0.0000 0.0000 0.0000 0.0000 0.0000 0.0000 0.0000 0.0000 0.0000 0.0000 0.0000 0.0000 0.0000 0.0000 0.0000 0.0000 0.0000 0.0000 0.0000 0.0000 0.0000 0.0000 0.0000 0.0000 0.0000 0.0000 0.0000 0.0000 0.0000 0.0000 0.0000 0.0000 0.0000 0.0000 0.0000 0.0000 0.0000 0.0000 0.0000 0.0000 0.0000 0.0000 0.0000 0.0000 0.0000 0.0000 0.0000 0.0000 0.0000 0.0000 0.0000 0.0000 0.0000 0.0000 0.0000 0.0000 0.0000 0.0000 0.0000 0.0000 0.0000 0.0000 0.0000 0.0000 0.0000 0.0000 0.0000 0.0000 0.0000 0.0000 0.0000 0.0000 0.0000 0.0000 0.0000 0.0000 0.0000 0.0000 0.0000 0.0000 0.0000 0.0000 0.0000 0.0000 0.0000 0.0000 0.0000 0.0000 0.0000 0.0000 0.0000 0.0000 0.0000 0.0000 0.0000 0.0000 0.0000 0.0000 0.0000 0.0000 0.0000 0.0000 0.0000 0.0000 0.0000 0.0000 0.0000 0.0000 0.0000 0.0000 0.0000 0.0000 0.0000 0.0000 0.0000 0.0000 0.0000 0.0000 0.0000 0.0000 0.0000 0.0000 0.0000 0.0000 0.0000 0.0000 0.0000 0.0000 0.0000 0.0000 0.0000 0.0000 0.0000 0.0000 0.0000 0.0000 0.0000 
</DataArray>
<DataArray type="Float32" Name="Radius" NumberOfComponents="1" format="ascii">
0.2836 0.4013 0.1318 0.2016 0.1180 0.3971 0.2083 0.1983 0.2316 0.1830 0.2083 0.3713 0.4684 0.4068 0.0904 0.1829 0.3563 0.0426 0.3370 0.0706 0.0906 0.2770 0.1479 0.2597 0.1799 0.0357 0.2470 0.1111 0.3861 0.1728 0.2415 0.1488 0.1852 0.4082 0.0789 0.3617 0.1983 0.2946 0.1310 0.1777 0.1186 0.0958 0.1461 0.1204 0.1697 0.2266 0.0285 0.2738 0.2145 0.1500 0.0684 0.3210 0.0978 0.3387 0.0725 0.0663 0.3437 0.1516 0.2290 0.0523 0.2101 0.1609 0.0319 0.2682 0.0319 0.0594 0.1467 0.1322 0.2393 0.1851 0.2074 0.1030 0.1359 0.2829 0.0245 0.0362 0.0912 0.0360 0.0578 0.0281 0.2335 0.3751 0.1181 0.0882 0.3214 0.0469 0.0591 0.0801 0.0418 0.0249 0.0686 0.2172 0.0552 0.1891 0.2694 0.2488 0.1514 0.0359 0.0394 0.1545 0.0395 0.0915 0.0982 0.0338 0.4255 0.1590 0.0297 0.2410 0.0967 0.2990 0.0949 0.2044 0.0293 0.2959 0.0623 0.1153 0.4013 0.0394 0.1161 0.0410 0.0430 0.0311 0.1806 0.2180 0.0308 0.2285 0.2693 0.2762 0.0354 0.2923 0.0539 0.0326 0.0331 0.0287 0.1362 0.0691 0.3517 0.2116 0.0355 0.0407 0.1352 0.1315 0.3295 0.0442 0.1371 0.3589 0.1107 0.0280 0.0997 0.3400 0.0311 0.0302 0.0244 0.0339 0.0381 0.1598 0.0273 0.1295 0.1480 0.0285 0.0812 0.0806 0.0313 0.0323 0.0845 0.0343 0.0294 0.1745 0.0162 0.0255 0.2424 0.0492 0.2341 0.2743 0.1852 0.0231 0.0286 0.0249 0.1995 0.0970 0.1169 0.0313 
</DataArray>
</PointData>
<CellData/>
</Piece>
</UnstructuredGrid>
</VTKFile>
