<?xml version="1.0"?>
<VTKFile type="UnstructuredGrid" version="0.1" byte_order="LittleEndian">
 <UnstructuredGrid>
  <Piece NumberOfPoints="182" NumberOfCells="0">
   <Cells>
    <DataArray type="Int32" name="connectivity" format="ascii">
       0
    </DataArray>
    <DataArray type="Float32" name="offset" format="ascii">
       0
    </DataArray>
    <DataArray type="UInt8" name="types" format="ascii">
       1
    </DataArray>
   </Cells>
   <Points>
<DataArray type="Float32" NumberOfComponents="3" format="ascii">
-0.1417 0.0650 -0.1720 -0.0378 0.1710 0.0537 -0.3521 -0.0301 0.1245 -0.0526 -0.2756 -0.2767 0.3665 0.2937 0.1718 -0.0814 -0.0837 -0.0710 0.0643 0.3372 -0.1827 0.0742 0.4167 -0.0509 -0.2381 0.1422 -0.0646 0.0557 0.4321 0.0489 -0.0147 0.2141 -0.2824 -0.0598 0.0928 -0.1183 0.0376 0.0306 -0.0139 0.0181 0.0948 -0.1159 0.0574 0.3013 -0.4246 -0.2441 -0.0799 0.2072 0.0800 -0.2090 0.0659 0.1563 -0.1628 -0.4456 0.0224 -0.2444 0.1316 -0.3823 0.2872 -0.0126 0.0641 -0.1198 -0.4587 0.0526 -0.2505 -0.0813 -0.0458 -0.2402 -0.3847 -0.2166 -0.2400 0.1510 0.3510 0.2193 0.0843 -0.3427 0.4289 0.1934 0.1704 0.2518 0.2059 -0.4259 -0.2496 0.0974 -0.0192 -0.0060 0.0959 -0.3091 0.0374 -0.1187 0.0240 -0.1777 -0.2585 -0.0911 0.4296 0.1645 -0.0426 -0.3033 0.2978 0.0616 0.1833 0.0713 0.1752 -0.3854 0.3265 -0.0470 -0.2510 0.0402 -0.2209 0.3343 0.0963 -0.1988 -0.1567 0.1044 -0.1551 0.4565 0.0848 0.2036 -0.2075 -0.1926 -0.4153 -0.1453 0.0133 0.3594 -0.2729 -0.0121 0.1794 -0.3606 0.2399 -0.3985 -0.1186 0.0716 0.0531 0.2782 -0.3243 -0.2785 -0.1615 -0.0090 0.0175 0.0699 -0.5986 -0.1330 -0.1498 0.1850 -0.2819 -0.2515 0.0717 -0.2975 0.2906 0.0308 0.3207 -0.4162 0.1618 0.0784 -0.1131 -0.1643 -0.2570 0.3940 0.2190 -0.0032 -0.0153 -0.2142 -0.1228 0.3776 0.3660 0.2933 0.4683 0.0552 0.0727 -0.1512 -0.0888 -0.0739 -0.3869 -0.2264 -0.0242 0.3861 0.0605 0.3790 -0.3740 0.0523 0.0144 0.0762 -0.3733 0.0314 0.3154 0.3214 0.0900 0.4977 -0.3151 -0.0286 -0.1497 -0.2742 -0.0667 -0.3714 -0.4606 0.0466 0.2436 -0.5036 -0.0160 -0.0833 -0.4510 -0.3819 -0.0442 0.0124 -0.2545 0.0389 0.0242 -0.1500 -0.2634 0.2828 -0.0352 0.3087 0.2611 -0.1262 -0.4998 -0.0853 -0.0843 -0.4425 -0.1649 -0.1816 0.0347 0.0971 0.0227 0.1344 -0.5912 -0.4586 -0.2811 0.2217 0.1581 0.3183 0.3812 0.5062 0.1816 0.0258 0.0984 0.5163 -0.2200 -0.0294 -0.1807 -0.5737 0.2357 0.2907 0.0931 -0.0365 -0.1390 0.1079 -0.2355 -0.4424 0.0471 0.0054 0.0281 -0.5244 0.1396 -0.0895 -0.0955 -0.0857 -0.4520 -0.3448 0.2908 -0.4704 0.0953 -0.4375 -0.0661 -0.0650 -0.0505 -0.2633 -0.5167 -0.0989 -0.5041 -0.3176 -0.2797 -0.3021 0.3558 0.1194 0.3869 0.0119 0.4444 0.2755 0.2059 0.0344 0.1803 -0.3637 -0.1771 -0.2892 0.0851 0.2227 -0.1695 0.0026 -0.1666 -0.0944 -0.3391 0.5006 0.2704 0.1299 -0.4098 -0.4056 0.0850 0.3744 0.1194 -0.0019 0.0792 0.4092 -0.4101 0.0775 -0.5215 0.0510 0.3651 0.2752 0.2430 0.5140 0.2616 0.0924 -0.0490 0.1096 0.0119 0.2144 -0.3621 0.1801 -0.0015 -0.0300 -0.5998 0.1039 -0.3517 0.0924 0.0751 0.3946 -0.3256 0.2151 0.1360 0.0155 0.3229 -0.3909 0.0903 -0.3012 -0.0308 -0.0704 -0.0263 -0.1056 -0.5919 0.0831 -0.1326 0.1575 0.0363 0.1895 -0.5239 0.3192 -0.3237 0.0729 -0.0981 -0.1449 0.0536 -0.0753 -0.4003 -0.4195 0.3970 0.2930 0.1008 0.1098 -0.3858 0.4060 0.0901 0.5497 -0.1792 -0.0674 -0.3251 -0.4965 -0.1182 -0.3088 -0.2077 -0.3045 -0.2339 0.1027 -0.4192 -0.2894 0.2897 0.2761 0.2395 0.1331 -0.0559 -0.2925 -0.1159 -0.1272 0.2948 0.1162 -0.3738 0.4413 0.0988 -0.1023 -0.2756 0.1364 -0.0401 -0.2106 -0.5261 0.0481 -0.3775 0.4366 -0.0717 -0.5721 -0.1407 -0.1169 -0.3469 0.4535 -0.3007 -0.0048 -0.2315 -0.2232 0.3977 0.2987 0.0980 0.1532 -0.0613 -0.1836 -0.2651 0.2406 0.3729 0.2992 0.3290 -0.1972 -0.5471 -0.0478 0.2543 0.0660 -0.2926 -0.1249 0.3781 0.2736 0.0458 0.2400 -0.0644 -0.0344 -0.5757 -0.0677 -0.0302 -0.1583 -0.4408 0.1501 0.1467 0.0575 -0.1599 0.3713 0.3000 0.0986 0.5249 -0.2777 -0.1300 -0.3202 0.3782 -0.0347 -0.1816 -0.1420 -0.3743 -0.2978 0.3353 0.0780 0.3852 -0.4508 -0.4009 0.4036 0.0609 -0.1043 -0.5235 -0.2655 -0.5050 -0.2054 0.0461 0.2852 -0.2950 0.0392 -0.2382 -0.5468 -0.0122 0.0870 0.4561 -0.1545 -0.0200 0.4168 0.2126 0.0572 0.3154 -0.5079 -0.2723 -0.0820 -0.3486 -0.2952 -0.0211 -0.3251 0.0391 -0.5909 0.0058 0.4888 0.2766 0.1709 0.0060 0.5384 -0.0144 0.1162 0.3483 0.4477 -0.0808 -0.4425 -0.3966 0.1208 -0.0348 0.2841 0.2717 -0.5338 0.0839 0.0056 -0.5982 -0.0283 -0.1025 -0.2669 0.2359 -0.1465 -0.0902 -0.4796 0.0517 0.2707 -0.2263 -0.1485 -0.0008 0.1558 0.2059 -0.3673 0.1039 0.3395 0.3059 0.3741 -0.3880 -0.4449 0.0720 -0.0153 -0.0700 -0.6023 0.0984 0.2868 0.2809 -0.3496 0.1024 -0.1919 -0.0689 -0.4970 -0.0822 -0.2660 0.5198 0.0867 
</DataArray>
    </Points>
    <PointData>
<DataArray type="Float32" Name="Position" NumberOfComponents="3" format="ascii">
-0.1417 0.0650 -0.1720 -0.0378 0.1710 0.0537 -0.3521 -0.0301 0.1245 -0.0526 -0.2756 -0.2767 0.3665 0.2937 0.1718 -0.0814 -0.0837 -0.0710 0.0643 0.3372 -0.1827 0.0742 0.4167 -0.0509 -0.2381 0.1422 -0.0646 0.0557 0.4321 0.0489 -0.0147 0.2141 -0.2824 -0.0598 0.0928 -0.1183 0.0376 0.0306 -0.0139 0.0181 0.0948 -0.1159 0.0574 0.3013 -0.4246 -0.2441 -0.0799 0.2072 0.0800 -0.2090 0.0659 0.1563 -0.1628 -0.4456 0.0224 -0.2444 0.1316 -0.3823 0.2872 -0.0126 0.0641 -0.1198 -0.4587 0.0526 -0.2505 -0.0813 -0.0458 -0.2402 -0.3847 -0.2166 -0.2400 0.1510 0.3510 0.2193 0.0843 -0.3427 0.4289 0.1934 0.1704 0.2518 0.2059 -0.4259 -0.2496 0.0974 -0.0192 -0.0060 0.0959 -0.3091 0.0374 -0.1187 0.0240 -0.1777 -0.2585 -0.0911 0.4296 0.1645 -0.0426 -0.3033 0.2978 0.0616 0.1833 0.0713 0.1752 -0.3854 0.3265 -0.0470 -0.2510 0.0402 -0.2209 0.3343 0.0963 -0.1988 -0.1567 0.1044 -0.1551 0.4565 0.0848 0.2036 -0.2075 -0.1926 -0.4153 -0.1453 0.0133 0.3594 -0.2729 -0.0121 0.1794 -0.3606 0.2399 -0.3985 -0.1186 0.0716 0.0531 0.2782 -0.3243 -0.2785 -0.1615 -0.0090 0.0175 0.0699 -0.5986 -0.1330 -0.1498 0.1850 -0.2819 -0.2515 0.0717 -0.2975 0.2906 0.0308 0.3207 -0.4162 0.1618 0.0784 -0.1131 -0.1643 -0.2570 0.3940 0.2190 -0.0032 -0.0153 -0.2142 -0.1228 0.3776 0.3660 0.2933 0.4683 0.0552 0.0727 -0.1512 -0.0888 -0.0739 -0.3869 -0.2264 -0.0242 0.3861 0.0605 0.3790 -0.3740 0.0523 0.0144 0.0762 -0.3733 0.0314 0.3154 0.3214 0.0900 0.4977 -0.3151 -0.0286 -0.1497 -0.2742 -0.0667 -0.3714 -0.4606 0.0466 0.2436 -0.5036 -0.0160 -0.0833 -0.4510 -0.3819 -0.0442 0.0124 -0.2545 0.0389 0.0242 -0.1500 -0.2634 0.2828 -0.0352 0.3087 0.2611 -0.1262 -0.4998 -0.0853 -0.0843 -0.4425 -0.1649 -0.1816 0.0347 0.0971 0.0227 0.1344 -0.5912 -0.4586 -0.2811 0.2217 0.1581 0.3183 0.3812 0.5062 0.1816 0.0258 0.0984 0.5163 -0.2200 -0.0294 -0.1807 -0.5737 0.2357 0.2907 0.0931 -0.0365 -0.1390 0.1079 -0.2355 -0.4424 0.0471 0.0054 0.0281 -0.5244 0.1396 -0.0895 -0.0955 -0.0857 -0.4520 -0.3448 0.2908 -0.4704 0.0953 -0.4375 -0.0661 -0.0650 -0.0505 -0.2633 -0.5167 -0.0989 -0.5041 -0.3176 -0.2797 -0.3021 0.3558 0.1194 0.3869 0.0119 0.4444 0.2755 0.2059 0.0344 0.1803 -0.3637 -0.1771 -0.2892 0.0851 0.2227 -0.1695 0.0026 -0.1666 -0.0944 -0.3391 0.5006 0.2704 0.1299 -0.4098 -0.4056 0.0850 0.3744 0.1194 -0.0019 0.0792 0.4092 -0.4101 0.0775 -0.5215 0.0510 0.3651 0.2752 0.2430 0.5140 0.2616 0.0924 -0.0490 0.1096 0.0119 0.2144 -0.3621 0.1801 -0.0015 -0.0300 -0.5998 0.1039 -0.3517 0.0924 0.0751 0.3946 -0.3256 0.2151 0.1360 0.0155 0.3229 -0.3909 0.0903 -0.3012 -0.0308 -0.0704 -0.0263 -0.1056 -0.5919 0.0831 -0.1326 0.1575 0.0363 0.1895 -0.5239 0.3192 -0.3237 0.0729 -0.0981 -0.1449 0.0536 -0.0753 -0.4003 -0.4195 0.3970 0.2930 0.1008 0.1098 -0.3858 0.4060 0.0901 0.5497 -0.1792 -0.0674 -0.3251 -0.4965 -0.1182 -0.3088 -0.2077 -0.3045 -0.2339 0.1027 -0.4192 -0.2894 0.2897 0.2761 0.2395 0.1331 -0.0559 -0.2925 -0.1159 -0.1272 0.2948 0.1162 -0.3738 0.4413 0.0988 -0.1023 -0.2756 0.1364 -0.0401 -0.2106 -0.5261 0.0481 -0.3775 0.4366 -0.0717 -0.5721 -0.1407 -0.1169 -0.3469 0.4535 -0.3007 -0.0048 -0.2315 -0.2232 0.3977 0.2987 0.0980 0.1532 -0.0613 -0.1836 -0.2651 0.2406 0.3729 0.2992 0.3290 -0.1972 -0.5471 -0.0478 0.2543 0.0660 -0.2926 -0.1249 0.3781 0.2736 0.0458 0.2400 -0.0644 -0.0344 -0.5757 -0.0677 -0.0302 -0.1583 -0.4408 0.1501 0.1467 0.0575 -0.1599 0.3713 0.3000 0.0986 0.5249 -0.2777 -0.1300 -0.3202 0.3782 -0.0347 -0.1816 -0.1420 -0.3743 -0.2978 0.3353 0.0780 0.3852 -0.4508 -0.4009 0.4036 0.0609 -0.1043 -0.5235 -0.2655 -0.5050 -0.2054 0.0461 0.2852 -0.2950 0.0392 -0.2382 -0.5468 -0.0122 0.0870 0.4561 -0.1545 -0.0200 0.4168 0.2126 0.0572 0.3154 -0.5079 -0.2723 -0.0820 -0.3486 -0.2952 -0.0211 -0.3251 0.0391 -0.5909 0.0058 0.4888 0.2766 0.1709 0.0060 0.5384 -0.0144 0.1162 0.3483 0.4477 -0.0808 -0.4425 -0.3966 0.1208 -0.0348 0.2841 0.2717 -0.5338 0.0839 0.0056 -0.5982 -0.0283 -0.1025 -0.2669 0.2359 -0.1465 -0.0902 -0.4796 0.0517 0.2707 -0.2263 -0.1485 -0.0008 0.1558 0.2059 -0.3673 0.1039 0.3395 0.3059 0.3741 -0.3880 -0.4449 0.0720 -0.0153 -0.0700 -0.6023 0.0984 0.2868 0.2809 -0.3496 0.1024 -0.1919 -0.0689 -0.4970 -0.0822 -0.2660 0.5198 0.0867 
</DataArray>
<DataArray type="Float32" Name="Velocity" NumberOfComponents="3" format="ascii">
0.0000 0.0000 0.0000 0.0000 0.0000 0.0000 0.0000 0.0000 0.0000 0.0000 0.0000 0.0000 0.0000 0.0000 0.0000 0.0000 0.0000 0.0000 0.0000 0.0000 0.0000 0.0000 0.0000 0.0000 0.0000 0.0000 0.0000 0.0000 0.0000 0.0000 0.0000 0.0000 0.0000 0.0000 0.0000 0.0000 0.0000 0.0000 0.0000 0.0000 0.0000 0.0000 0.0000 0.0000 0.0000 0.0000 0.0000 0.0000 0.0000 0.0000 0.0000 0.0000 0.0000 0.0000 0.0000 0.0000 0.0000 0.0000 0.0000 0.0000 0.0000 0.0000 0.0000 0.0000 0.0000 0.0000 0.0000 0.0000 0.0000 0.0000 0.0000 0.0000 0.0000 0.0000 0.0000 0.0000 0.0000 0.0000 0.0000 0.0000 0.0000 0.0000 0.0000 0.0000 0.0000 0.0000 0.0000 0.0000 0.0000 0.0000 0.0000 0.0000 0.0000 0.0000 0.0000 0.0000 0.0000 0.0000 0.0000 0.0000 0.0000 0.0000 0.0000 0.0000 0.0000 0.0000 0.0000 0.0000 0.0000 0.0000 0.0000 0.0000 0.0000 0.0000 0.0000 0.0000 0.0000 0.0000 0.0000 0.0000 0.0000 0.0000 0.0000 0.0000 0.0000 0.0000 0.0000 0.0000 0.0000 0.0000 0.0000 0.0000 0.0000 0.0000 0.0000 0.0000 0.0000 0.0000 0.0000 0.0000 0.0000 0.0000 0.0000 0.0000 0.0000 0.0000 0.0000 0.0000 0.0000 0.0000 0.0000 0.0000 0.0000 0.0000 0.0000 0.0000 0.0000 0.0000 0.0000 0.0000 0.0000 0.0000 0.0000 0.0000 0.0000 0.0000 0.0000 0.0000 0.0000 0.0000 0.0000 0.0000 0.0000 0.0000 0.0000 0.0000 0.0000 0.0000 0.0000 0.0000 0.0000 0.0000 0.0000 0.0000 0.0000 0.0000 0.0000 0.0000 0.0000 0.0000 0.0000 0.0000 0.0000 0.0000 0.0000 0.0000 0.0000 0.0000 0.0000 0.0000 0.0000 0.0000 0.0000 0.0000 0.0000 0.0000 0.0000 0.0000 0.0000 0.0000 0.0000 0.0000 0.0000 0.0000 0.0000 0.0000 0.0000 0.0000 0.0000 0.0000 0.0000 0.0000 0.0000 0.0000 0.0000 0.0000 0.0000 0.0000 0.0000 0.0000 0.0000 0.0000 0.0000 0.0000 0.0000 0.0000 0.0000 0.0000 0.0000 0.0000 0.0000 0.0000 0.0000 0.0000 0.0000 0.0000 0.0000 0.0000 0.0000 0.0000 0.0000 0.0000 0.0000 0.0000 0.0000 0.0000 0.0000 0.0000 0.0000 0.0000 0.0000 0.0000 0.0000 0.0000 0.0000 0.0000 0.0000 0.0000 0.0000 0.0000 0.0000 0.0000 0.0000 0.0000 0.0000 0.0000 0.0000 0.0000 0.0000 0.0000 0.0000 0.0000 0.0000 0.0000 0.0000 0.0000 0.0000 0.0000 0.0000 0.0000 0.0000 0.0000 0.0000 0.0000 0.0000 0.0000 0.0000 0.0000 0.0000 0.0000 0.0000 0.0000 0.0000 0.0000 0.0000 0.0000 0.0000 0.0000 0.0000 0.0000 0.0000 0.0000 0.0000 0.0000 0.0000 0.0000 0.0000 0.0000 0.0000 0.0000 0.0000 0.0000 0.0000 0.0000 0.0000 0.0000 0.0000 0.0000 0.0000 0.0000 0.0000 0.0000 0.0000 0.0000 0.0000 0.0000 0.0000 0.0000 0.0000 0.0000 0.0000 0.0000 0.0000 0.0000 0.0000 0.0000 0.0000 0.0000 0.0000 0.0000 0.0000 0.0000 0.0000 0.0000 0.0000 0.0000 0.0000 0.0000 0.0000 0.0000 0.0000 0.0000 0.0000 0.0000 0.0000 0.0000 0.0000 0.0000 0.0000 0.0000 0.0000 0.0000 0.0000 0.0000 0.0000 0.0000 0.0000 0.0000 0.0000 0.0000 0.0000 0.0000 0.0000 0.0000 0.0000 0.0000 0.0000 0.0000 0.0000 0.0000 0.0000 0.0000 0.0000 0.0000 0.0000 0.0000 0.0000 0.0000 0.0000 0.0000 0.0000 0.0000 0.0000 0.0000 0.0000 0.0000 0.0000 0.0000 0.0000 0.0000 0.0000 0.0000 0.0000 0.0000 0.0000 0.0000 0.0000 0.0000 0.0000 0.0000 0.0000 0.0000 0.0000 0.0000 0.0000 0.0000 0.0000 0.0000 0.0000 0.0000 0.0000 0.0000 0.0000 0.0000 0.0000 0.0000 0.0000 0.0000 0.0000 0.0000 0.0000 0.0000 0.0000 0.0000 0.0000 0.0000 0.0000 0.0000 0.0000 0.0000 0.0000 0.0000 0.0000 0.0000 0.0000 0.0000 0.0000 0.0000 0.0000 0.0000 0.0000 0.0000 0.0000 0.0000 0.0000 0.0000 0.0000 0.0000 0.0000 0.0000 0.0000 0.0000 0.0000 0.0000 0.0000 0.0000 0.0000 0.0000 0.0000 0.0000 0.0000 0.0000 0.0000 0.0000 0.0000 0.0000 0.0000 0.0000 0.0000 0.0000 0.0000 0.0000 0.0000 0.0000 0.0000 0.0000 0.0000 0.0000 0.0000 0.0000 0.0000 0.0000 0.0000 0.0000 0.0000 0.0000 0.0000 0.0000 0.0000 0.0000 0.0000 0.0000 0.0000 0.0000 0.0000 0.0000 0.0000 0.0000 0.0000 0.0000 0.0000 0.0000 0.0000 0.0000 0.0000 0.0000 0.0000 0.0000 0.0000 0.0000 0.0000 0.0000 0.0000 0.0000 0.0000 0.0000 0.0000 0.0000 0.0000 0.0000 0.0000 0.0000 0.0000 0.0000 0.0000 0.0000 
</DataArray>
<DataArray type="Float32" Name="Radius" NumberOfComponents="1" format="ascii">
0.2836 0.4013 0.1318 0.2016 0.1180 0.3971 0.2083 0.1983 0.2316 0.1830 0.2083 0.3713 0.4684 0.4068 0.0904 0.1829 0.3563 0.0426 0.3370 0.0706 0.0906 0.2770 0.1479 0.2597 0.1799 0.0357 0.2470 0.1111 0.3861 0.1728 0.2415 0.1488 0.1852 0.4082 0.0789 0.3617 0.1983 0.2946 0.1310 0.1777 0.1186 0.0958 0.1461 0.1204 0.1697 0.2266 0.0285 0.2738 0.2145 0.1500 0.0684 0.3210 0.0978 0.3387 0.0725 0.0663 0.3437 0.1516 0.2290 0.0523 0.2101 0.1609 0.0319 0.2682 0.0319 0.0594 0.1467 0.1322 0.2393 0.1851 0.2074 0.1030 0.1359 0.2829 0.0245 0.0362 0.0912 0.0360 0.0578 0.0281 0.2335 0.3751 0.1181 0.0882 0.3214 0.0469 0.0591 0.0801 0.0418 0.0249 0.0686 0.2172 0.0552 0.1891 0.2694 0.2488 0.1514 0.0359 0.0394 0.1545 0.0395 0.0915 0.0982 0.0338 0.4255 0.1590 0.0297 0.2410 0.0967 0.2990 0.0949 0.2044 0.0293 0.2959 0.0623 0.1153 0.4013 0.0394 0.1161 0.0410 0.0430 0.0311 0.1806 0.2180 0.0308 0.2285 0.2693 0.2762 0.0354 0.2923 0.0539 0.0326 0.0331 0.0287 0.1362 0.0691 0.3517 0.2116 0.0355 0.0407 0.1352 0.1315 0.3295 0.0442 0.1371 0.3589 0.1107 0.0280 0.0997 0.3400 0.0311 0.0302 0.0244 0.0339 0.0381 0.1598 0.0273 0.1295 0.1480 0.0285 0.0812 0.0806 0.0313 0.0323 0.0845 0.0343 0.0294 0.1745 0.0162 0.0255 0.2424 0.0492 0.2341 0.2743 0.1852 0.0231 0.0286 0.0249 0.1995 0.0970 0.1169 0.0313 
</DataArray>
</PointData>
<CellData/>
</Piece>
</UnstructuredGrid>
</VTKFile>
