restart_version 2
name H10A24L1M0.5B0.5
xmin 0 xmax 20 ymin 0 ymax 10 zmin 0 zmax 12
dt 0.0001 t 3000 tmax 3000 save_count 500000
dim 3 gravity 0.40673664 0 -0.91354546
options_fstat 1 options_data 1 options_ene 1 options_restart 2
Species 1
k 200000 disp 25 kt 57142.857 dispt 25 mu 0.5 rho 1.9098593 dim_particle 3
Walls 1
numFiniteWalls 0 normal 0 0 -1 position 1.7
WallsPeriodic 2
normal 1 0 0 pos_left 0 pos_right 20 shift 20 0 0
normal 0 1 0 pos_left 0 pos_right 10 shift 0 10 0
Particles 2295
0.63521207 4.5212242 -0.0096217221 0 0 0 0.5 0 0 0 0 0 0 0 0 0 
13.804014 3.9164718 -0.71018927 0 0 0 0.5 0 0 0 0 0 0 0 0 0 
14.298297 3.1320398 -1.0824495 0 0 0 0.5 0 0 0 0 0 0 0 0 0 
5.6964022 3.8637124 -0.65505777 0 0 0 0.5 0 0 0 0 0 0 0 0 0 
19.853537 4.8397881 -0.54413956 0 0 0 0.5 0 0 0 0 0 0 0 0 0 
19.416171 4.0170075 -0.1828895 0 0 0 0.5 0 0 0 0 0 0 0 0 0 
5.2566961 8.1881774 -0.38348726 0 0 0 0.5 0 0 0 0 0 0 0 0 0 
9.9932774 7.0500525 -0.15512679 0 0 0 0.5 0 0 0 0 0 0 0 0 0 
3.2421099 6.9615644 -1.1265373 0 0 0 0.5 0 0 0 0 0 0 0 0 0 
16.090114 6.7431831 -0.2232577 0 0 0 0.5 0 0 0 0 0 0 0 0 0 
15.292345 7.9929722 -0.74997655 0 0 0 0.5 0 0 0 0 0 0 0 0 0 
13.123639 9.5968331 -0.55564325 0 0 0 0.5 0 0 0 0 0 0 0 0 0 
11.183293 8.5317045 -0.6656384 0 0 0 0.5 0 0 0 0 0 0 0 0 0 
8.0793342 0.33763836 -0.15877045 0 0 0 0.5 0 0 0 0 0 0 0 0 0 
6.4192442 7.9738633 -0.21516111 0 0 0 0.5 0 0 0 0 0 0 0 0 0 
0.71194077 9.5290794 -0.055232675 0 0 0 0.5 0 0 0 0 0 0 0 0 0 
16.880619 9.3525126 -0.75640874 0 0 0 0.5 0 0 0 0 0 0 0 0 0 
10.912793 9.6098588 -0.36460615 0 0 0 0.5 0 0 0 0 0 0 0 0 0 
14.606218 9.7046354 -1.0962355 0 0 0 0.5 0 0 0 0 0 0 0 0 0 
8.8921195 7.3128858 -0.8733892 0 0 0 0.5 0 0 0 0 0 0 0 0 0 
7.7186091 9.849447 -0.95342782 0 0 0 0.5 0 0 0 0 0 0 0 0 0 
13.376507 7.7522748 -0.38111192 0 0 0 0.5 0 0 0 0 0 0 0 0 0 
13.040191 2.3364124 -0.65262508 0 0 0 0.5 0 0 0 0 0 0 0 0 0 
8.5503431 8.2549297 -0.83548763 0 0 0 0.5 0 0 0 0 0 0 0 0 0 
4.0313015 5.0298108 -0.92234956 0 0 0 0.5 0 0 0 0 0 0 0 0 0 
0.57602501 8.3186532 -0.4057055 0 0 0 0.5 0 0 0 0 0 0 0 0 0 
17.203425 6.1329445 -1.121789 0 0 0 0.5 0 0 0 0 0 0 0 0 0 
14.327237 7.1829441 -0.023192275 0 0 0 0.5 0 0 0 0 0 0 0 0 0 
17.916424 9.1587016 -0.25905272 0 0 0 0.5 0 0 0 0 0 0 0 0 0 
17.219035 1.0130854 -0.29169817 0 0 0 0.5 0 0 0 0 0 0 0 0 0 
6.1122653 1.8785369 -0.41206198 0 0 0 0.5 0 0 0 0 0 0 0 0 0 
12.474526 7.3013495 -0.72898898 0 0 0 0.5 0 0 0 0 0 0 0 0 0 
18.03753 6.5783257 -0.80074719 0 0 0 0.5 0 0 0 0 0 0 0 0 0 
8.4965865 5.8519116 -0.2521878 0 0 0 0.5 0 0 0 0 0 0 0 0 0 
14.912523 1.6161649 -0.2299757 0 0 0 0.5 0 0 0 0 0 0 0 0 0 
5.096081 6.6272283 -0.98135098 0 0 0 0.5 0 0 0 0 0 0 0 0 0 
2.4839966 6.9966719 -0.0089622525 0 0 0 0.5 0 0 0 0 0 0 0 0 0 
15.597303 1.0630205 -0.70405035 0 0 0 0.5 0 0 0 0 0 0 0 0 0 
18.441387 8.2688567 -0.90004311 0 0 0 0.5 0 0 0 0 0 0 0 0 0 
0.023799167 7.4859314 -0.37977396 0 0 0 0.5 0 0 0 0 0 0 0 0 0 
1.7544568 1.7406356 -0.36694219 0 0 0 0.5 0 0 0 0 0 0 0 0 0 
19.318521 6.7596091 -0.77542876 0 0 0 0.5 0 0 0 0 0 0 0 0 0 
7.5567904 6.131464 -0.057555416 0 0 0 0.5 0 0 0 0 0 0 0 0 0 
17.507138 4.5628674 -0.66794691 0 0 0 0.5 0 0 0 0 0 0 0 0 0 
15.999778 3.9108198 -0.4761799 0 0 0 0.5 0 0 0 0 0 0 0 0 0 
2.3227827 5.4282517 -0.38966986 0 0 0 0.5 0 0 0 0 0 0 0 0 0 
10.356382 5.0692065 -0.41304348 0 0 0 0.5 0 0 0 0 0 0 0 0 0 
4.0841358 7.9549868 -0.020974229 0 0 0 0.5 0 0 0 0 0 0 0 0 0 
5.3423744 9.8857514 -1.0428214 0 0 0 0.5 0 0 0 0 0 0 0 0 0 
10.694529 6.7338289 -0.87141754 0 0 0 0.5 0 0 0 0 0 0 0 0 0 
12.004064 9.9562001 -0.60493158 0 0 0 0.5 0 0 0 0 0 0 0 0 0 
9.5254344 8.0717506 -0.71727739 0 0 0 0.5 0 0 0 0 0 0 0 0 0 
10.799452 4.1792526 -0.51491468 0 0 0 0.5 0 0 0 0 0 0 0 0 0 
13.619438 5.7043556 -0.91589499 0 0 0 0.5 0 0 0 0 0 0 0 0 0 
17.111117 3.6263129 -0.48755252 0 0 0 0.5 0 0 0 0 0 0 0 0 0 
15.571456 9.183671 -0.7112486 0 0 0 0.5 0 0 0 0 0 0 0 0 0 
3.8745372 4.2435248 -0.212921 0 0 0 0.5 0 0 0 0 0 0 0 0 0 
18.171128 2.5517171 -0.68320162 0 0 0 0.5 0 0 0 0 0 0 0 0 0 
0.12094618 2.2996603 -1.1632485 0 0 0 0.5 0 0 0 0 0 0 0 0 0 
11.447322 1.1957976 -0.59608036 0 0 0 0.5 0 0 0 0 0 0 0 0 0 
2.6432905 2.0945951 -0.076033637 0 0 0 0.5 0 0 0 0 0 0 0 0 0 
3.3481021 8.5003703 -0.96183707 0 0 0 0.5 0 0 0 0 0 0 0 0 0 
2.1197838 4.4516218 -0.45459376 0 0 0 0.5 0 0 0 0 0 0 0 0 0 
3.7296509 3.412099 -0.75465298 0 0 0 0.5 0 0 0 0 0 0 0 0 0 
3.7492471 1.6544057 -0.84702648 0 0 0 0.5 0 0 0 0 0 0 0 0 0 
7.3444914 8.4462266 -0.27342643 0 0 0 0.5 0 0 0 0 0 0 0 0 0 
14.658722 3.0228738 -0.13314831 0 0 0 0.5 0 0 0 0 0 0 0 0 0 
6.0461311 0.67826385 -0.49229901 0 0 0 0.5 0 0 0 0 0 0 0 0 0 
12.878826 6.3747621 -0.88407934 0 0 0 0.5 0 0 0 0 0 0 0 0 0 
6.5015046 6.7493167 -0.1601022 0 0 0 0.5 0 0 0 0 0 0 0 0 0 
15.331561 5.9470744 -0.95165181 0 0 0 0.5 0 0 0 0 0 0 0 0 0 
19.849024 3.0416198 -0.55169814 0 0 0 0.5 0 0 0 0 0 0 0 0 0 
3.5754978 5.4452189 -0.11270959 0 0 0 0.5 0 0 0 0 0 0 0 0 0 
7.9601009 2.4752304 -0.83139745 0 0 0 0.5 0 0 0 0 0 0 0 0 0 
13.874314 0.19113528 -0.2580364 0 0 0 0.5 0 0 0 0 0 0 0 0 0 
16.649624 4.1650663 -1.1919165 0 0 0 0.5 0 0 0 0 0 0 0 0 0 
15.129825 5.2652223 -0.24856586 0 0 0 0.5 0 0 0 0 0 0 0 0 0 
16.219934 9.9842612 -0.3505817 0 0 0 0.5 0 0 0 0 0 0 0 0 0 
12.752104 3.3126603 -0.70891273 0 0 0 0.5 0 0 0 0 0 0 0 0 0 
2.0880381 9.1294152 -0.57862733 0 0 0 0.5 0 0 0 0 0 0 0 0 0 
6.6895878 6.3688731 -1.0746632 0 0 0 0.5 0 0 0 0 0 0 0 0 0 
18.777627 7.4944619 -0.36825432 0 0 0 0.5 0 0 0 0 0 0 0 0 0 
4.716663 1.6126462 -0.59628428 0 0 0 0.5 0 0 0 0 0 0 0 0 0 
5.8561097 6.1096512 -0.58824413 0 0 0 0.5 0 0 0 0 0 0 0 0 0 
0.96228367 1.140461 -0.17380856 0 0 0 0.5 0 0 0 0 0 0 0 0 0 
3.0775827 4.7181689 -0.58530526 0 0 0 0.5 0 0 0 0 0 0 0 0 0 
8.0654592 0.80308466 -1.0432558 0 0 0 0.5 0 0 0 0 0 0 0 0 0 
17.594576 8.7539354 -1.1164938 0 0 0 0.5 0 0 0 0 0 0 0 0 0 
16.52248 1.380312 -0.90720268 0 0 0 0.5 0 0 0 0 0 0 0 0 0 
14.399547 5.9406897 -0.3371935 0 0 0 0.5 0 0 0 0 0 0 0 0 0 
9.5636365 3.6094382 -0.29919524 0 0 0 0.5 0 0 0 0 0 0 0 0 0 
12.26484 1.7434137 -0.87460332 0 0 0 0.5 0 0 0 0 0 0 0 0 0 
12.356722 9.0541716 -0.89788884 0 0 0 0.5 0 0 0 0 0 0 0 0 0 
0.8214864 5.9975244 -0.22725586 0 0 0 0.5 0 0 0 0 0 0 0 0 0 
8.3549376 9.3899785 -0.31838176 0 0 0 0.5 0 0 0 0 0 0 0 0 0 
9.2711528 4.5653073 -0.27607775 0 0 0 0.5 0 0 0 0 0 0 0 0 0 
7.5732056 6.7657051 -0.82996596 0 0 0 0.5 0 0 0 0 0 0 0 0 0 
9.7425063 5.4528678 -1.1019075 0 0 0 0.5 0 0 0 0 0 0 0 0 0 
2.3626816 7.3891466 -0.91995241 0 0 0 0.5 0 0 0 0 0 0 0 0 0 
3.9638307 7.050627 -0.43190464 0 0 0 0.5 0 0 0 0 0 0 0 0 0 
16.198549 8.4732607 -1.0293472 0 0 0 0.5 0 0 0 0 0 0 0 0 0 
11.256086 3.3562091 -0.85008268 0 0 0 0.5 0 0 0 0 0 0 0 0 0 
5.2525376 8.8950393 -1.1317644 0 0 0 0.5 0 0 0 0 0 0 0 0 0 
1.3754722 5.1655601 -0.20157443 0 0 0 0.5 0 0 0 0 0 0 0 0 0 
11.150064 0.33542143 -1.0090239 0 0 0 0.5 0 0 0 0 0 0 0 0 0 
7.3716493 4.1843939 -0.45174321 0 0 0 0.5 0 0 0 0 0 0 0 0 0 
4.9206303 5.6710488 -0.74970224 0 0 0 0.5 0 0 0 0 0 0 0 0 0 
17.206686 2.4171049 -0.44977022 0 0 0 0.5 0 0 0 0 0 0 0 0 0 
7.7982518 1.6274859 -0.32745012 0 0 0 0.5 0 0 0 0 0 0 0 0 0 
14.689623 5.1940664 -1.1655956 0 0 0 0.5 0 0 0 0 0 0 0 0 0 
1.3717959 0.23725018 -0.30474348 0 0 0 0.5 0 0 0 0 0 0 0 0 0 
12.99608 1.4162516 -0.26451978 0 0 0 0.5 0 0 0 0 0 0 0 0 0 
0.79626531 6.972697 -0.0064170043 0 0 0 0.5 0 0 0 0 0 0 0 0 0 
0.34830639 0.35318514 -0.58175199 0 0 0 0.5 0 0 0 0 0 0 0 0 0 
14.30245 7.83619 -0.77968109 0 0 0 0.5 0 0 0 0 0 0 0 0 0 
12.506495 4.4166579 -0.60409765 0 0 0 0.5 0 0 0 0 0 0 0 0 0 
5.8828421 8.1221035 -1.1604129 0 0 0 0.5 0 0 0 0 0 0 0 0 0 
11.749236 9.1309723 -0.10001568 0 0 0 0.5 0 0 0 0 0 0 0 0 0 
8.3237398 6.8331724 -0.17328981 0 0 0 0.5 0 0 0 0 0 0 0 0 0 
12.986417 8.6646143 -0.22091845 0 0 0 0.5 0 0 0 0 0 0 0 0 0 
10.317276 2.0609319 -1.1772647 0 0 0 0.5 0 0 0 0 0 0 0 0 0 
4.4057664 9.972703 -0.0016869931 0 0 0 0.5 0 0 0 0 0 0 0 0 0 
4.8667449 4.1311172 -0.15634406 0 0 0 0.5 0 0 0 0 0 0 0 0 0 
19.680119 2.0710682 -0.058627524 0 0 0 0.5 0 0 0 0 0 0 0 0 0 
12.09653 8.2355352 -0.37627788 0 0 0 0.5 0 0 0 0 0 0 0 0 0 
6.923268 0.21503408 -0.36620659 0 0 0 0.5 0 0 0 0 0 0 0 0 0 
5.1557619 4.7147893 -0.91473126 0 0 0 0.5 0 0 0 0 0 0 0 0 0 
4.4027456 8.477836 -0.81117959 0 0 0 0.5 0 0 0 0 0 0 0 0 0 
8.8931856 2.8293925 -0.76968058 0 0 0 0.5 0 0 0 0 0 0 0 0 0 
2.3209995 8.1274517 -0.1893006 0 0 0 0.5 0 0 0 0 0 0 0 0 0 
2.3565817 0.070756031 -0.37361116 0 0 0 0.5 0 0 0 0 0 0 0 0 0 
13.819864 6.6638564 -0.71078106 0 0 0 0.5 0 0 0 0 0 0 0 0 0 
18.878009 9.0972319 -0.52588585 0 0 0 0.5 0 0 0 0 0 0 0 0 0 
16.988617 8.3486926 -0.430453 0 0 0 0.5 0 0 0 0 0 0 0 0 0 
11.757807 2.1962287 -0.14194528 0 0 0 0.5 0 0 0 0 0 0 0 0 0 
11.315187 2.0061877 -1.1669743 0 0 0 0.5 0 0 0 0 0 0 0 0 0 
11.673897 4.221895 -1.1262872 0 0 0 0.5 0 0 0 0 0 0 0 0 0 
14.880756 9.638601 -0.13609335 0 0 0 0.5 0 0 0 0 0 0 0 0 0 
6.3300274 9.9870568 -1.1562571 0 0 0 0.5 0 0 0 0 0 0 0 0 0 
14.729947 0.57834031 -0.59965295 0 0 0 0.5 0 0 0 0 0 0 0 0 0 
13.691148 8.6135957 -0.92798198 0 0 0 0.5 0 0 0 0 0 0 0 0 0 
1.0942752 3.0901631 -0.76533793 0 0 0 0.5 0 0 0 0 0 0 0 0 0 
4.91112 7.269342 -0.19967537 0 0 0 0.5 0 0 0 0 0 0 0 0 0 
3.1823944 7.6739348 -0.42414415 0 0 0 0.5 0 0 0 0 0 0 0 0 0 
18.289103 9.8049622 -0.92486746 0 0 0 0.5 0 0 0 0 0 0 0 0 0 
17.259302 5.4683905 -0.32725241 0 0 0 0.5 0 0 0 0 0 0 0 0 0 
6.7083522 5.6674721 -0.31110731 0 0 0 0.5 0 0 0 0 0 0 0 0 0 
9.9061531 4.3519111 -1.0180144 0 0 0 0.5 0 0 0 0 0 0 0 0 0 
3.1536707 0.38602121 -1.0099355 0 0 0 0.5 0 0 0 0 0 0 0 0 0 
8.7560784 5.3012104 -1.0451434 0 0 0 0.5 0 0 0 0 0 0 0 0 0 
4.8794746 9.0923551 -0.18174404 0 0 0 0.5 0 0 0 0 0 0 0 0 0 
17.88851 1.7446242 -0.16353361 0 0 0 0.5 0 0 0 0 0 0 0 0 0 
12.802405 8.1779567 -1.0813573 0 0 0 0.5 0 0 0 0 0 0 0 0 0 
17.635728 7.6654631 -0.76774701 0 0 0 0.5 0 0 0 0 0 0 0 0 0 
6.8758231 1.2358408 -0.4749531 0 0 0 0.5 0 0 0 0 0 0 0 0 0 
13.329651 4.9260856 -0.35582083 0 0 0 0.5 0 0 0 0 0 0 0 0 0 
9.0873874 8.7403865 -0.11624809 0 0 0 0.5 0 0 0 0 0 0 0 0 0 
18.872657 3.2557617 -0.5347191 0 0 0 0.5 0 0 0 0 0 0 0 0 0 
7.9165007 3.3519772 -0.35325076 0 0 0 0.5 0 0 0 0 0 0 0 0 0 
19.749506 5.8078113 -0.92557815 0 0 0 0.5 0 0 0 0 0 0 0 0 0 
16.004882 5.7473994 -0.20253916 0 0 0 0.5 0 0 0 0 0 0 0 0 0 
2.0499581 3.5934526 -1.0443786 0 0 0 0.5 0 0 0 0 0 0 0 0 0 
0.84074493 2.1271616 -0.49157008 0 0 0 0.5 0 0 0 0 0 0 0 0 0 
9.6602031 2.6067176 -0.16821767 0 0 0 0.5 0 0 0 0 0 0 0 0 0 
6.9958467 2.2526978 -0.69339128 0 0 0 0.5 0 0 0 0 0 0 0 0 0 
9.5416063 0.94346228 -0.82455575 0 0 0 0.5 0 0 0 0 0 0 0 0 0 
17.485638 0.052905414 -0.37737016 0 0 0 0.5 0 0 0 0 0 0 0 0 0 
18.853262 1.5013903 -0.06740478 0 0 0 0.5 0 0 0 0 0 0 0 0 0 
2.3560928 8.3593994 -1.1608272 0 0 0 0.5 0 0 0 0 0 0 0 0 0 
19.002056 0.79734293 -1.0005099 0 0 0 0.5 0 0 0 0 0 0 0 0 0 
10.518276 1.108687 -0.95500272 0 0 0 0.5 0 0 0 0 0 0 0 0 0 
7.7676189 5.1401581 -0.29085682 0 0 0 0.5 0 0 0 0 0 0 0 0 0 
13.104424 5.8541635 -0.060952913 0 0 0 0.5 0 0 0 0 0 0 0 0 0 
10.728426 5.7517947 -1.0520344 0 0 0 0.5 0 0 0 0 0 0 0 0 0 
3.9874335 6.0229714 -0.81627106 0 0 0 0.5 0 0 0 0 0 0 0 0 0 
7.7179558 8.8538533 -1.1102491 0 0 0 0.5 0 0 0 0 0 0 0 0 0 
17.940536 5.4605846 -1.0588814 0 0 0 0.5 0 0 0 0 0 0 0 0 0 
1.5771942 5.8863641 -0.8724703 0 0 0 0.5 0 0 0 0 0 0 0 0 0 
4.5288362 5.0667964 -0.056171259 0 0 0 0.5 0 0 0 0 0 0 0 0 0 
19.397042 9.8931172 -0.83946912 0 0 0 0.5 0 0 0 0 0 0 0 0 0 
12.177411 0.78362731 -1.1391939 0 0 0 0.5 0 0 0 0 0 0 0 0 0 
8.4795642 6.4247676 -1.0744228 0 0 0 0.5 0 0 0 0 0 0 0 0 0 
7.6892315 7.7550207 -0.90756687 0 0 0 0.5 0 0 0 0 0 0 0 0 0 
15.791106 7.207128 -1.1116767 0 0 0 0.5 0 0 0 0 0 0 0 0 0 
3.8552878 2.501487 -0.3271368 0 0 0 0.5 0 0 0 0 0 0 0 0 0 
10.247202 8.7177147 -0.96453219 0 0 0 0.5 0 0 0 0 0 0 0 0 0 
5.9073657 2.8941543 -0.52904886 0 0 0 0.5 0 0 0 0 0 0 0 0 0 
5.4940986 1.2010258 -1.1396655 0 0 0 0.5 0 0 0 0 0 0 0 0 0 
1.234282 4.0825697 -0.7356924 0 0 0 0.5 0 0 0 0 0 0 0 0 0 
13.977128 9.2010025 -0.17000089 0 0 0 0.5 0 0 0 0 0 0 0 0 0 
17.481666 1.5662325 -1.1122258 0 0 0 0.5 0 0 0 0 0 0 0 0 0 
1.364451 8.4827211 -1.0334509 0 0 0 0.5 0 0 0 0 0 0 0 0 0 
5.6891598 5.1958146 -0.21859702 0 0 0 0.5 0 0 0 0 0 0 0 0 0 
1.5808344 4.9269432 -1.1497151 0 0 0 0.5 0 0 0 0 0 0 0 0 0 
10.190242 0.1835633 -0.75001494 0 0 0 0.5 0 0 0 0 0 0 0 0 0 
18.011929 0.76207114 -0.84669235 0 0 0 0.5 0 0 0 0 0 0 0 0 0 
18.670481 0.34418047 -0.17406813 0 0 0 0.5 0 0 0 0 0 0 0 0 0 
12.564475 5.4084023 -0.78107841 0 0 0 0.5 0 0 0 0 0 0 0 0 0 
2.8600841 1.2649704 -0.59025735 0 0 0 0.5 0 0 0 0 0 0 0 0 0 
14.663538 8.7678373 -0.75443901 0 0 0 0.5 0 0 0 0 0 0 0 0 0 
12.003079 2.7033775 -0.96854873 0 0 0 0.5 0 0 0 0 0 0 0 0 0 
0.678994 5.2885827 -0.91761749 0 0 0 0.5 0 0 0 0 0 0 0 0 0 
9.2777217 1.9077697 -0.83597832 0 0 0 0.5 0 0 0 0 0 0 0 0 0 
16.516133 5.4134922 -0.99371353 0 0 0 0.5 0 0 0 0 0 0 0 0 0 
3.0890395 5.627355 -1.0000907 0 0 0 0.5 0 0 0 0 0 0 0 0 0 
11.63221 5.2197403 -1.0904891 0 0 0 0.5 0 0 0 0 0 0 0 0 0 
11.634351 6.8620119 -1.1951054 0 0 0 0.5 0 0 0 0 0 0 0 0 0 
0.30815903 6.628562 -0.80819096 0 0 0 0.5 0 0 0 0 0 0 0 0 0 
6.8704205 8.3241399 -1.1450305 0 0 0 0.5 0 0 0 0 0 0 0 0 0 
2.4422954 6.3866067 -0.93645791 0 0 0 0.5 0 0 0 0 0 0 0 0 0 
18.046362 3.7359429 -0.82543576 0 0 0 0.5 0 0 0 0 0 0 0 0 0 
18.238305 5.3839781 -0.10792018 0 0 0 0.5 0 0 0 0 0 0 0 0 0 
16.343292 2.0100652 -0.15163244 0 0 0 0.5 0 0 0 0 0 0 0 0 0 
1.0248938 1.3852553 -1.1412912 0 0 0 0.5 0 0 0 0 0 0 0 0 0 
5.9996059 8.8509336 -0.46071905 0 0 0 0.5 0 0 0 0 0 0 0 0 0 
5.5229978 9.8478637 -0.060250073 0 0 0 0.5 0 0 0 0 0 0 0 0 0 
2.9386002 9.4103706 -1.021866 0 0 0 0.5 0 0 0 0 0 0 0 0 0 
15.684019 4.8394874 -0.96328221 0 0 0 0.5 0 0 0 0 0 0 0 0 0 
19.168024 2.3607898 -0.86771545 0 0 0 0.5 0 0 0 0 0 0 0 0 0 
6.8807617 3.2338008 -0.53894454 0 0 0 0.5 0 0 0 0 0 0 0 0 0 
1.3945723 7.7603595 -0.27127949 0 0 0 0.5 0 0 0 0 0 0 0 0 0 
4.3782823 4.1039247 -1.0666195 0 0 0 0.5 0 0 0 0 0 0 0 0 0 
8.3645591 4.2469315 -0.55172892 0 0 0 0.5 0 0 0 0 0 0 0 0 0 
9.8568975 7.2246176 -1.1300179 0 0 0 0.5 0 0 0 0 0 0 0 0 0 
10.479449 7.8314493 -0.54704347 0 0 0 0.5 0 0 0 0 0 0 0 0 0 
13.671097 3.0204458 -0.28773558 0 0 0 0.5 0 0 0 0 0 0 0 0 0 
18.723765 6.2570956 -0.14837144 0 0 0 0.5 0 0 0 0 0 0 0 0 0 
5.8076774 7.255596 -0.67069294 0 0 0 0.5 0 0 0 0 0 0 0 0 0 
19.898521 9.0586113 -0.39619603 0 0 0 0.5 0 0 0 0 0 0 0 0 0 
3.3200254 0.018860381 -0.095157259 0 0 0 0.5 0 0 0 0 0 0 0 0 0 
5.4480062 2.2025058 -1.0859998 0 0 0 0.5 0 0 0 0 0 0 0 0 0 
2.8392244 3.7591893 -0.45374435 0 0 0 0.5 0 0 0 0 0 0 0 0 0 
11.938884 3.6978091 -0.2049702 0 0 0 0.5 0 0 0 0 0 0 0 0 0 
2.9401304 2.8000974 -0.7178043 0 0 0 0.5 0 0 0 0 0 0 0 0 0 
16.19302 7.7307811 -0.36013035 0 0 0 0.5 0 0 0 0 0 0 0 0 0 
8.9173476 0.176105 -0.67998355 0 0 0 0.5 0 0 0 0 0 0 0 0 0 
10.453069 0.80455357 -0.004988748 0 0 0 0.5 0 0 0 0 0 0 0 0 0 
19.033191 5.0339069 -1.0801667 0 0 0 0.5 0 0 0 0 0 0 0 0 0 
19.560006 0.80048717 -0.15969689 0 0 0 0.5 0 0 0 0 0 0 0 0 0 
13.834587 1.3485913 -0.80702124 0 0 0 0.5 0 0 0 0 0 0 0 0 0 
18.780033 5.9987737 -1.1350264 0 0 0 0.5 0 0 0 0 0 0 0 0 0 
1.968348 2.6144255 -0.86168614 0 0 0 0.5 0 0 0 0 0 0 0 0 0 
1.630213 6.8267264 -0.53784784 0 0 0 0.5 0 0 0 0 0 0 0 0 0 
0.24547634 3.9404198 -0.73609923 0 0 0 0.5 0 0 0 0 0 0 0 0 0 
7.5190193 5.7846678 -1.0132967 0 0 0 0.5 0 0 0 0 0 0 0 0 0 
5.028934 2.4697982 -0.18837569 0 0 0 0.5 0 0 0 0 0 0 0 0 0 
16.815695 7.0936581 -0.8153548 0 0 0 0.5 0 0 0 0 0 0 0 0 0 
14.928068 6.8384119 -0.74419508 0 0 0 0.5 0 0 0 0 0 0 0 0 0 
4.9630183 7.6042313 -1.1403011 0 0 0 0.5 0 0 0 0 0 0 0 0 0 
1.2098478 9.4653933 -0.91958615 0 0 0 0.5 0 0 0 0 0 0 0 0 0 
4.345052 9.9812106 -1.0165045 0 0 0 0.5 0 0 0 0 0 0 0 0 0 
15.51071 0.12583328 -1.0408504 0 0 0 0.5 0 0 0 0 0 0 0 0 0 
13.09828 6.8559355 -0.03613764 0 0 0 0.5 0 0 0 0 0 0 0 0 0 
11.420195 7.5051215 -0.46124513 0 0 0 0.5 0 0 0 0 0 0 0 0 0 
8.6869723 1.1689431 -0.35176665 0 0 0 0.5 0 0 0 0 0 0 0 0 0 
18.47682 1.6477334 -0.98204278 0 0 0 0.5 0 0 0 0 0 0 0 0 0 
15.026788 4.0113506 -0.26887558 0 0 0 0.5 0 0 0 0 0 0 0 0 0 
8.1642449 7.8094255 -0.02845758 0 0 0 0.5 0 0 0 0 0 0 0 0 0 
14.306602 4.7138619 -0.37706245 0 0 0 0.5 0 0 0 0 0 0 0 0 0 
6.4803301 4.6416934 -0.47712179 0 0 0 0.5 0 0 0 0 0 0 0 0 0 
10.272404 6.092867 -0.23088093 0 0 0 0.5 0 0 0 0 0 0 0 0 0 
3.8645183 9.2507061 -0.4322095 0 0 0 0.5 0 0 0 0 0 0 0 0 0 
6.7714496 7.3558331 -0.91778566 0 0 0 0.5 0 0 0 0 0 0 0 0 0 
3.208805 6.3696197 -0.29426541 0 0 0 0.5 0 0 0 0 0 0 0 0 0 
13.113871 0.57052233 -0.78363572 0 0 0 0.5 0 0 0 0 0 0 0 0 0 
9.4417839 5.5422864 -0.1513468 0 0 0 0.5 0 0 0 0 0 0 0 0 0 
9.549502 9.4017846 -0.70696818 0 0 0 0.5 0 0 0 0 0 0 0 0 0 
3.935676 0.72435877 -0.48704569 0 0 0 0.5 0 0 0 0 0 0 0 0 0 
11.615236 4.6894085 -0.24326802 0 0 0 0.5 0 0 0 0 0 0 0 0 0 
16.822703 0.29513604 -1.0854687 0 0 0 0.5 0 0 0 0 0 0 0 0 0 
1.8973245 0.86013683 -0.8829841 0 0 0 0.5 0 0 0 0 0 0 0 0 0 
10.188259 3.0700404 -0.87903718 0 0 0 0.5 0 0 0 0 0 0 0 0 0 
14.23867 2.2494395 -0.61048676 0 0 0 0.5 0 0 0 0 0 0 0 0 0 
16.364856 3.0400367 -0.80437821 0 0 0 0.5 0 0 0 0 0 0 0 0 0 
11.549261 6.0771528 -0.58400423 0 0 0 0.5 0 0 0 0 0 0 0 0 0 
1.9505186 3.5497344 -0.048943432 0 0 0 0.5 0 0 0 0 0 0 0 0 0 
11.443277 9.3534727 -1.1716189 0 0 0 0.5 0 0 0 0 0 0 0 0 0 
4.9306448 0.63861645 -0.53155992 0 0 0 0.5 0 0 0 0 0 0 0 0 0 
10.078377 1.7042773 -0.27380355 0 0 0 0.5 0 0 0 0 0 0 0 0 0 
4.476853 2.4371243 -1.1074683 0 0 0 0.5 0 0 0 0 0 0 0 0 0 
15.528331 2.2701736 -0.6689086 0 0 0 0.5 0 0 0 0 0 0 0 0 0 
6.887211 9.2392621 -0.7050303 0 0 0 0.5 0 0 0 0 0 0 0 0 0 
0.14434543 1.4311408 -0.66952933 0 0 0 0.5 0 0 0 0 0 0 0 0 0 
7.2503821 7.4038455 -0.04149441 0 0 0 0.5 0 0 0 0 0 0 0 0 0 
2.964357 8.9260864 -0.14234339 0 0 0 0.5 0 0 0 0 0 0 0 0 0 
19.40487 8.2250942 -0.64209076 0 0 0 0.5 0 0 0 0 0 0 0 0 0 
8.6356698 2.1345949 -0.098825368 0 0 0 0.5 0 0 0 0 0 0 0 0 0 
16.58919 4.6987135 -0.29899642 0 0 0 0.5 0 0 0 0 0 0 0 0 0 
9.4180559 6.4090537 -0.73083783 0 0 0 0.5 0 0 0 0 0 0 0 0 0 
18.556809 4.4813272 -0.39745417 0 0 0 0.5 0 0 0 0 0 0 0 0 0 
15.345267 3.2416564 -0.82539146 0 0 0 0.5 0 0 0 0 0 0 0 0 0 
4.8707342 3.3035017 -0.71666638 0 0 0 0.5 0 0 0 0 0 0 0 0 0 
10.831614 2.4579751 -0.41728916 0 0 0 0.5 0 0 0 0 0 0 0 0 0 
17.235568 6.4552579 -0.17053205 0 0 0 0.5 0 0 0 0 0 0 0 0 0 
12.109736 6.689662 -0.027793269 0 0 0 0.5 0 0 0 0 0 0 0 0 0 
16.740874 5.5752638 4.9092067 0.75087481 -0.028490714 0.21614466 0.5 11.202288 270.65731 -28.271614 0.074337209 0.6055964 0.044014636 1 10 1 -3.129164e-06 7.7491467e-06 2.7307607e-06 0 -1 695.7625 
8.1278977 1.3866919 2.5922765 0.51346379 -0.07365525 0.014523012 0.5 9.3459506 279.04065 15.757019 -0.63888984 0.27904208 -0.013961461 1 10 1 7.9293443e-06 1.5235494e-05 2.0236431e-05 295 -1 2397.6409 
1.8162962 8.0109616 0.66596705 -0.030219516 0.0094911971 -0.023821922 0.5 -9.9964085 228.63139 4.2959002 0.018283412 -0.061894584 -0.060631217 1 10 1 6.7372728e-05 0.00017194676 6.3177104e-05 129 -1 3000 
0.87765629 3.8830328 1.0452312 0.12040938 0.23558531 -0.05153388 0.5 -1.8279663 243.41749 9.1933232 -0.2151648 0.029609015 0.18361845 1 10 1 -5.7676466e-06 5.2997229e-06 5.1273219e-06 296 -1 2881.1733 
3.9720184 3.4400907 1.0414894 0.12048759 0.12516963 0.018438449 0.5 -4.632185 283.24287 -2.8776045 -0.26630149 0.39446531 0.2572017 1 10 1 -2.3467128e-06 -4.535053e-06 1.6835045e-06 275 -1 2981.6456 
16.746386 9.0649879 4.0978482 0.82412497 0.13930968 -0.16042034 0.5 7.1672529 293.73281 26.751267 0.25499711 0.56127126 -0.2589744 1 10 1 -1.6047379e-06 -3.8101608e-07 9.7473166e-08 298 -1 2803.6475 
16.562839 7.3541622 8.485209 1.842245 0.023592415 -0.034616478 0.5 -17.317748 191.10703 35.088569 0.22262673 0.87287657 0.0166626 1 10 1 5.3207619e-07 4.0712404e-07 -1.2075432e-06 295 -1 2700.0913 
17.548013 5.0806989 7.6126374 1.4075334 -0.088675317 0.025278822 0.5 -25.466229 229.95868 2.0990654 0.013982561 -0.067473783 0.1533438 1 10 1 1.8305634e-06 -3.6009522e-06 -3.2305981e-06 295 -1 2623.7477 
2.7097193 1.616487 0.80092072 0.058019582 -0.0094677541 0.08704964 0.5 33.389254 300.91127 29.498641 -0.27650285 0.66732368 0.28862172 1 10 1 -2.248548e-06 -9.1734322e-07 -3.3422831e-07 60 -1 2999.9807 
12.934757 3.004139 1.9396393 0.34131952 -0.053762968 -0.019515206 0.5 0.49859839 205.42309 -17.806152 -0.21819751 -0.33404233 0.068593721 1 10 1 -4.0783677e-06 5.0295042e-06 8.2345826e-07 299 -1 2947.1051 
7.1934837 8.0669274 7.0121462 0.99509264 0.11059261 0.27055181 0.5 28.56181 243.2805 -14.168867 0.40332686 0.44492283 -0.24158844 1 10 1 -1.0760607e-05 9.0827963e-06 -4.3005012e-08 303 -1 2557.0122 
3.4880126 8.8898789 1.5307542 0.21564756 0.039978565 -0.080645234 0.5 32.967738 309.32092 12.153379 0.029775296 0.47473757 -0.56093047 1 10 1 -1.809493e-07 9.7729369e-07 2.2931738e-06 298 -1 2795.7331 
0.064119299 9.5123232 5.6176004 1.0249707 -0.0141631 -0.052745629 0.5 12.696863 306.57198 -11.939682 0.61490636 0.29030376 0.0087999533 1 10 1 2.1337779e-06 7.9684114e-07 -2.769256e-06 302 -1 2689.2767 
9.6742977 8.9258307 6.8558936 1.1086811 0.045717196 -0.12729503 0.5 11.327891 282.05238 -4.4559811 -0.083971364 0.40079183 0.74539401 1 10 1 8.3254432e-06 -1.9232766e-06 -1.3781608e-05 307 -1 2881.5981 
11.602379 1.4271126 6.3798565 1.0642587 0.072242015 -0.01910988 0.5 -24.918918 350.25638 -13.227912 -0.48701654 -0.19354224 -0.078350017 1 10 1 9.3282602e-07 -2.9171603e-06 1.0722898e-06 295 -1 2453.2019 
19.929043 8.1031714 4.5795755 0.77190206 -0.0048215582 -0.051144456 0.5 11.060344 340.16987 14.843894 0.28766132 -0.17985886 -0.041800694 1 10 1 3.223918e-05 6.5759801e-06 -7.6929686e-06 296 -1 2505.418 
8.4074648 6.7089434 3.7247148 0.57826147 0.089201141 0.12263269 0.5 17.775908 275.34948 27.013629 -0.13008344 0.14594754 -0.030417898 1 10 1 5.7017657e-06 -3.8696614e-06 -2.6833697e-06 297 -1 2733.9862 
16.540993 3.3066907 1.076887 0.072087097 -0.02776041 -0.08200061 0.5 8.1275001 219.77168 -10.210847 -0.17047471 0.029620824 0.3028949 1 10 1 1.8158045e-05 -3.0754643e-05 6.7248191e-06 304 -1 2902.7277 
2.5197384 6.0013281 7.2051954 1.1840113 0.13638775 0.046103977 0.5 11.426159 297.73231 -3.895569 0.16049198 0.20086318 0.014922661 1 10 1 -2.7863059e-05 1.3075374e-05 1.4528365e-06 307 -1 2823.5313 
4.945281 0.87379002 1.2708723 0.088314658 0.015612149 -0.033799486 0.5 -9.1006738 169.82834 -15.937502 -0.14633897 0.18963585 0.097547187 1 10 1 1.8848517e-06 -1.4769187e-05 2.4414313e-05 296 -1 2980.5648 
16.423263 7.5931778 5.2991878 0.68279763 -0.1352936 -0.023259482 0.5 -18.089306 187.41789 10.155318 -0.009988696 0.36497864 -0.13841262 1 10 1 2.6439948e-06 1.6979982e-06 -1.9022988e-06 310 -1 2918.2875 
15.172958 2.2201699 7.2898877 1.3102229 -0.17983033 0.031435617 0.5 -17.227934 309.79133 4.7813277 -0.15501599 -0.42027065 -0.17893372 1 10 1 -4.2265894e-06 -2.986614e-06 1.6407218e-06 310 -1 2582.499 
13.610672 5.9846055 2.4424714 0.43902939 0.28607762 -0.34642094 0.5 -12.315571 316.90016 -2.7181442 -0.24186505 0.11994488 -0.13018492 1 10 1 -7.427969e-08 -1.1180598e-06 -8.6575096e-07 312 -1 2920.3616 
10.183291 4.9627999 3.2379135 0.27306706 -0.06359507 0.043330981 0.5 0.13141056 288.4729 32.33504 -0.076150493 0.56995781 -0.52144269 1 10 1 -1.3441421e-06 2.0197824e-07 1.0112247e-06 298 -1 2952.6402 
16.639303 8.9017345 1.0157195 0.050124923 0.050884233 0.10190431 0.5 -3.276502 237.79457 22.063991 -0.00046956148 -0.010932136 0.075252937 1 10 1 2.8482971e-06 1.6821993e-07 3.7997732e-07 257 -1 2912.2699 
13.147554 8.7355644 5.7814821 1.1051047 0.13530286 0.021164805 0.5 -26.129056 241.90574 1.4956296 -0.016227721 -0.17985146 -0.022870458 1 10 1 7.2617229e-06 -8.2472046e-07 -1.4157037e-06 315 -1 2837.3124 
1.7373509 6.1961465 1.1827009 0.1719615 0.041893983 -0.024185234 0.5 9.6951469 209.8844 -1.0255374 0.14685694 -0.42269972 0.41062069 1 10 1 -1.5585609e-06 -1.2655843e-06 1.1708333e-06 211 -1 2971.54 
1.8534298 2.3780392 1.2416936 -0.036362022 0.025071219 0.002209422 0.5 33.077925 315.67014 -5.2966057 -0.053161999 -0.10614626 0.17178552 1 10 1 7.3748539e-06 3.5259508e-06 -4.1573461e-06 298 -1 2988.0217 
11.698841 4.3023758 7.8594553 1.5492172 0.093655704 -0.071353433 0.5 41.934853 318.84869 -8.2985746 0.27843542 -0.3612162 0.075956974 1 10 1 -8.3255657e-06 -4.9029625e-06 1.5980611e-05 300 -1 2491.5413 
7.9431409 1.1501949 3.5631359 0.56030492 -0.012606338 0.059132256 0.5 -10.258489 252.4548 33.652281 -0.41121677 0.20280707 -0.11104782 1 10 1 8.6905794e-06 -1.9021248e-06 1.4856304e-06 296 -1 2999.7494 
8.9440016 7.4337347 6.5165036 0.95553857 0.063074074 0.081399041 0.5 27.263828 305.64633 24.43525 0.19197298 0.045095977 0.3397152 1 10 1 8.5544231e-06 -3.499452e-06 4.0199685e-07 305 -1 2979.2675 
14.068198 6.5491151 4.5342187 0.85850551 0.077186371 -0.13443114 0.5 -26.338939 303.53993 4.3800362 -0.1462985 -0.31112851 -0.048496428 1 10 1 -2.1658484e-06 -1.8853583e-06 3.3115479e-06 315 -1 2988.1885 
6.1873404 8.6102123 0.52045449 0.029162859 -0.020236781 0.047515178 0.5 -16.607163 206.01764 5.9218592 0.13111434 -0.14093505 -0.11619707 1 10 1 0.00012321015 3.4854337e-05 8.6912021e-06 14 -1 3000 
8.3192838 2.6226212 1.5543347 0.24438177 0.070741751 0.066963485 0.5 -17.205063 258.6928 -8.3115544 -0.10224086 0.35388645 0.46279552 1 10 1 -5.7483471e-06 3.9246848e-06 3.4687153e-06 60 -1 2934.7315 
12.10276 0.53113474 8.288842 1.466295 -0.058190691 -0.028226401 0.5 -21.418425 333.02328 25.727861 0.3728747 0.27206559 0.72400125 1 10 1 1.5174811e-05 -1.0171177e-05 -2.246186e-05 309 -1 2884.9025 
4.4188411 6.4764579 4.4899641 0.74092813 -0.036275867 0.068870783 0.5 6.7030004 282.1039 6.1920496 0.22288506 -0.60850211 -0.49754655 1 10 1 -3.0363795e-07 -2.2373865e-07 2.8586816e-07 311 -1 2652.6383 
2.7753317 6.4614764 8.8343555 1.6053593 -0.075413284 -0.12697259 0.5 9.9138999 259.28431 4.0230357 -0.67722972 0.32855063 -0.57248661 1 10 1 5.7768008e-05 -0.00011051338 4.4163922e-06 301 -1 2947.2087 
0.87660606 0.42137844 5.9986637 1.1887492 0.054241327 -0.26265801 0.5 -42.375083 274.3932 -11.239788 -0.027635557 -0.087970294 0.14008 1 10 1 2.7438758e-06 -8.6539629e-07 -2.7097069e-06 307 -1 2993.2583 
1.0238986 9.3940468 5.9269633 1.127277 -0.034909137 0.074979205 0.5 -20.686206 278.6618 11.057664 0.17767979 0.42183015 0.078291218 1 10 1 -1.0974642e-06 -1.1204623e-06 3.0259933e-06 307 -1 2999.8762 
17.297873 6.7998018 7.5749837 1.2539952 0.036369774 0.31346409 0.5 -18.316945 317.4763 -7.3021551 0.048890498 0.077949559 0.20917432 1 10 1 -6.0706268e-06 -4.1621049e-06 -7.0477763e-07 296 -1 2696.7718 
9.8155058 1.7036474 8.5504631 1.5403656 0.20101073 -0.13613375 0.5 35.868993 238.68603 -48.270731 0.34228948 -0.2048488 -0.08882564 1 10 1 -5.7190391e-06 5.3427262e-06 1.0420188e-05 323 -1 2684.7725 
19.508847 7.9269997 1.1203476 0.30828375 0.16964679 0.098681005 0.5 -10.802122 320.51594 -4.91426 -0.36809287 0.042659843 -0.64809378 1 10 1 8.5348288e-07 -3.8885581e-06 -1.0327102e-06 36 -1 2882.8897 
15.284595 3.649646 3.875596 0.60265945 0.23758437 0.03156162 0.5 17.62318 330.97766 3.5519813 1.0242933 0.0037863516 -0.29007948 1 10 1 3.549547e-06 -2.8451815e-06 -6.1693473e-06 326 -1 2748.6475 
7.3702769 3.2069769 8.2849559 1.4519421 -0.064204781 0.11597434 0.5 31.826541 165.21976 -2.4132168 -0.64325417 0.90736957 0.19213078 1 10 1 -2.8566791e-05 4.3837502e-06 1.8678286e-05 335 -1 2979.2845 
18.587965 7.5466032 0.91381726 0.23133821 0.2701478 -0.033550963 0.5 7.3956944 258.44867 -0.97279602 0.097974195 0.19040943 -0.52634233 1 10 1 -3.9258724e-07 9.3506039e-07 -6.5244107e-08 336 -1 2999.762 
14.787785 0.84871177 1.737299 0.046532883 0.089541937 -0.12958808 0.5 6.2224414 283.66453 19.399364 -0.34789264 -0.27871664 -0.056191448 1 10 1 3.7687077e-05 -2.6506039e-05 3.3051191e-05 299 -1 2870.8394 
0.73962698 1.4940004 7.502814 1.5605567 0.058046046 -0.19798434 0.5 -11.44531 279.08745 17.329552 0.089130944 -0.11824468 -0.63296115 1 10 1 -1.1567211e-05 -1.1089751e-05 6.314497e-06 316 -1 2943.6439 
1.1157918 3.868683 3.3234976 0.44010917 0.041807033 -0.069432262 0.5 15.33273 315.08733 18.196419 0.84809693 -0.94940916 -0.48203135 1 10 1 1.0019902e-06 1.8154709e-06 -1.0514374e-06 309 -1 2734.2165 
4.0642523 0.31101319 0.87529646 0.14369423 -0.10246306 0.1210079 0.5 22.338704 270.68148 4.2677049 -0.18845824 0.39882692 -0.26806875 1 10 1 -7.3082417e-07 -2.5623813e-06 7.0545172e-07 121 -1 2999.994 
0.92467056 9.8114026 1.2801545 0.092563735 0.20969288 0.1278822 0.5 49.386842 273.37227 24.715326 -0.19594361 0.49593706 -0.40089383 1 10 1 1.851892e-06 -7.2480022e-08 -2.3832562e-06 343 -1 2978.1412 
14.851769 6.8228509 1.8406822 0.15833192 -0.008572794 0.029132599 0.5 1.7115532 275.04151 -8.1440497 -0.31750736 -0.10625467 -0.035835983 1 10 1 4.8652914e-06 -2.7524739e-06 -6.6569662e-07 103 -1 2922.851 
5.2982382 8.133839 5.3780054 0.84787501 -0.011959859 -0.017605047 0.5 -40.060927 253.59223 -8.0869749 0.1801804 0.78467566 0.074286828 1 10 1 -2.5352395e-06 -1.9016716e-07 1.6828692e-06 305 -1 2993.6842 
17.291952 5.1285544 6.6433602 1.0544801 -0.0037846783 0.14035127 0.5 -21.122863 296.63287 12.573585 -0.089270093 -0.29388492 -0.099386791 1 10 1 -3.6229205e-06 3.5325875e-08 9.778625e-07 302 -1 2999.784 
5.79928 5.9315944 4.2217923 0.80022955 0.094935563 -0.26265066 0.5 -6.0250783 247.64955 1.7660974 -0.13254001 0.49069515 -0.064646283 1 10 1 1.0576755e-05 1.3654658e-05 -1.6336136e-05 330 -1 2981.4924 
13.1817 3.8171414 0.066297304 -0.018789018 0.0068693035 0.014562936 0.5 -6.0008977 121.56755 -2.3007296 -0.018740371 0.15758445 0.047525348 1 10 1 4.6436284e-05 0.00011998528 -0.000205817 225 -1 3000 
15.919659 9.388652 1.5107291 0.022379542 0.033300714 0.11681305 0.5 -10.37526 221.86776 8.7486178 0.015842291 -0.024209955 0.066313053 1 10 1 2.2084428e-06 2.0222473e-06 1.221393e-06 319 -1 2999.9997 
14.524179 6.5251575 7.8846856 1.2543161 -0.17852882 0.043060048 0.5 -22.253008 320.73456 21.422831 0.18092205 -0.15088388 -0.18308484 1 10 1 1.2334072e-05 -5.7954615e-06 -1.3115997e-05 301 -1 2992.8701 