restart_version 2
name H10A26L2M0.5B0.5
xmin 0 xmax 20 ymin 0 ymax 10 zmin 0 zmax 12
dt 0.0001 t 2100 tmax 3000 save_count 500000
dim 3 gravity 0.43837115 0 -0.89879405
options_fstat 1 options_data 1 options_ene 1 options_restart 1
Species 1
k 200000 disp 25 kt 57142.857 dispt 25 mu 0.5 rho 1.9098593 dim_particle 3
Walls 1
numFiniteWalls 0 normal 0 0 -1 position 1.7
WallsPeriodic 2
normal 1 0 0 pos_left 0 pos_right 20 shift 20 0 0
normal 0 1 0 pos_left 0 pos_right 10 shift 0 10 0
Particles 2067
19.330017 1.0144385 -1.4931023 0 0 0 1 0 0 0 0 0 0 0 0 0 
19.998067 4.801808 -1.6774446 0 0 0 1 0 0 0 0 0 0 0 0 0 
9.0009585 2.2610568 -0.7392901 0 0 0 1 0 0 0 0 0 0 0 0 0 
11.319671 5.3727791 -2.0989941 0 0 0 1 0 0 0 0 0 0 0 0 0 
5.4432148 0.69356462 -2.3006582 0 0 0 1 0 0 0 0 0 0 0 0 0 
2.4775488 2.183002 -0.97341932 0 0 0 1 0 0 0 0 0 0 0 0 0 
10.381533 3.856421 -0.96416921 0 0 0 1 0 0 0 0 0 0 0 0 0 
11.232541 0.3387141 -2.1629756 0 0 0 1 0 0 0 0 0 0 0 0 0 
10.273786 0.7403499 -0.46097249 0 0 0 1 0 0 0 0 0 0 0 0 0 
12.119962 9.1507635 -0.7747042 0 0 0 1 0 0 0 0 0 0 0 0 0 
17.507186 1.8130578 -1.1150478 0 0 0 1 0 0 0 0 0 0 0 0 0 
0.10339191 6.7847973 -1.8655902 0 0 0 1 0 0 0 0 0 0 0 0 0 
4.6265159 2.1817674 -1.1848395 0 0 0 1 0 0 0 0 0 0 0 0 0 
2.3793022 7.152178 -0.54923244 0 0 0 1 0 0 0 0 0 0 0 0 0 
9.618117 6.9437624 -0.24860092 0 0 0 1 0 0 0 0 0 0 0 0 0 
8.2963885 8.5273967 -1.9377969 0 0 0 1 0 0 0 0 0 0 0 0 0 
17.996162 9.5389345 -1.478369 0 0 0 1 0 0 0 0 0 0 0 0 0 
3.8480144 3.7084524 -2.2709868 0 0 0 1 0 0 0 0 0 0 0 0 0 
14.569038 4.5746731 -2.1100379 0 0 0 1 0 0 0 0 0 0 0 0 0 
11.60796 2.1562788 -1.2803502 0 0 0 1 0 0 0 0 0 0 0 0 0 
1.9033776 4.2527062 -1.9295815 0 0 0 1 0 0 0 0 0 0 0 0 0 
9.6787983 6.494031 -2.1903785 0 0 0 1 0 0 0 0 0 0 0 0 0 
5.3729973 8.2317838 -0.24498363 0 0 0 1 0 0 0 0 0 0 0 0 0 
7.1046979 4.352739 -1.8206174 0 0 0 1 0 0 0 0 0 0 0 0 0 
4.7818852 0.33002225 -0.44813685 0 0 0 1 0 0 0 0 0 0 0 0 0 
19.413485 8.3252937 -0.80739518 0 0 0 1 0 0 0 0 0 0 0 0 0 
16.273632 0.41309669 -1.9180405 0 0 0 1 0 0 0 0 0 0 0 0 0 
10.267362 8.575693 -2.1607585 0 0 0 1 0 0 0 0 0 0 0 0 0 
16.210608 7.4546657 -0.77787905 0 0 0 1 0 0 0 0 0 0 0 0 0 
1.4017444 3.9329842 -0.024649341 0 0 0 1 0 0 0 0 0 0 0 0 0 
14.559586 9.4823649 -1.5499246 0 0 0 1 0 0 0 0 0 0 0 0 0 
0.89243535 5.855513 -0.24304626 0 0 0 1 0 0 0 0 0 0 0 0 0 
6.5814665 9.3658123 -1.367215 0 0 0 1 0 0 0 0 0 0 0 0 0 
12.371518 4.0054793 -1.0762213 0 0 0 1 0 0 0 0 0 0 0 0 0 
5.3888749 3.9629039 -0.65259336 0 0 0 1 0 0 0 0 0 0 0 0 0 
11.885399 5.7239607 -0.17468586 0 0 0 1 0 0 0 0 0 0 0 0 0 
1.9694367 6.2128737 -2.2654843 0 0 0 1 0 0 0 0 0 0 0 0 0 
1.3240057 8.7162954 -1.2277861 0 0 0 1 0 0 0 0 0 0 0 0 0 
6.7173069 0.83747111 -0.046913899 0 0 0 1 0 0 0 0 0 0 0 0 0 
6.8644238 5.3678862 -0.068038272 0 0 0 1 0 0 0 0 0 0 0 0 0 
8.8201676 5.1330734 -1.0194902 0 0 0 1 0 0 0 0 0 0 0 0 0 
14.711867 4.213571 -0.15227394 0 0 0 1 0 0 0 0 0 0 0 0 0 
4.0050126 7.6781626 -1.5827513 0 0 0 1 0 0 0 0 0 0 0 0 0 
14.791158 1.0164942 -0.252422 0 0 0 1 0 0 0 0 0 0 0 0 0 
6.038574 7.6240352 -2.1355829 0 0 0 1 0 0 0 0 0 0 0 0 0 
3.4881521 1.0646865 -2.397689 0 0 0 1 0 0 0 0 0 0 0 0 0 
13.737693 5.9178694 -0.89791124 0 0 0 1 0 0 0 0 0 0 0 0 0 
13.374957 2.6600646 -2.1306228 0 0 0 1 0 0 0 0 0 0 0 0 0 
0.33497185 2.7112414 -1.1908701 0 0 0 1 0 0 0 0 0 0 0 0 0 
13.405396 2.5260049 -0.13938516 0 0 0 1 0 0 0 0 0 0 0 0 0 
7.0155577 2.7023384 -0.700436 0 0 0 1 0 0 0 0 0 0 0 0 0 
13.511428 7.7913334 -1.5279549 0 0 0 1 0 0 0 0 0 0 0 0 0 
11.586472 7.2319552 -1.4531329 0 0 0 1 0 0 0 0 0 0 0 0 0 
8.5291123 0.42952152 -1.3801095 0 0 0 1 0 0 0 0 0 0 0 0 0 
3.1602621 9.4798821 -1.2510768 0 0 0 1 0 0 0 0 0 0 0 0 0 
5.579762 5.770911 -1.5589688 0 0 0 1 0 0 0 0 0 0 0 0 0 
3.4988758 5.0669081 -0.7550967 0 0 0 1 0 0 0 0 0 0 0 0 0 
15.260754 2.8080827 -1.4761412 0 0 0 1 0 0 0 0 0 0 0 0 0 
8.8913668 3.5695487 -2.2570855 0 0 0 1 0 0 0 0 0 0 0 0 0 
7.6871037 6.7628575 -1.2367601 0 0 0 1 0 0 0 0 0 0 0 0 0 
16.633641 6.0268704 -2.1026496 0 0 0 1 0 0 0 0 0 0 0 0 0 
9.4548971 8.9255459 -0.35693579 0 0 0 1 0 0 0 0 0 0 0 0 0 
17.026194 4.6232216 -0.74438735 0 0 0 1 0 0 0 0 0 0 0 0 0 
18.138275 6.7163885 -0.89904905 0 0 0 1 0 0 0 0 0 0 0 0 0 
18.508556 3.495914 -1.478946 0 0 0 1 0 0 0 0 0 0 0 0 0 
1.0529106 0.8638742 -0.49695421 0 0 0 1 0 0 0 0 0 0 0 0 0 
13.108013 0.83602468 -1.3585504 0 0 0 1 0 0 0 0 0 0 0 0 0 
2.039422 0.79161694 4.4207266 1.059157 -0.18691847 0.37980304 0.5 -13.417841 350.07304 -2.3134526 -0.020869777 -0.48166521 -0.026581891 1 10 0 
10.777954 3.8307238 0.48257716 0.076728452 -0.11625761 -0.0060126539 0.5 35.582614 260.46648 5.6591692 0.38627365 0.12298747 0.39762741 1 10 1 5.8553645e-07 5.7724349e-06 -6.3857773e-08 6 -1 2099.9863 
17.783994 9.1643461 3.1897959 0.77947453 0.10477883 0.060004659 0.5 8.0097085 311.70494 5.5556633 0.66834838 0.31750577 0.12079755 1 10 1 7.6932487e-06 1.0355215e-06 -8.3864373e-07 28 -1 1639.8528 
4.5675849 9.0428355 4.6159443 1.717764 -0.15393965 -0.19712349 0.5 7.5875365 295.44496 -24.720378 0.5091611 1.5834184 0.59564231 1 10 1 7.66688e-06 7.2854889e-06 -7.4173499e-06 69 -1 2088.6244 
15.934065 0.061878811 -0.4981228 -0.0076299648 0.014731505 -0.058807564 0.5 -15.912501 221.82541 -19.347131 -0.10178863 0.057449615 0.11780772 1 10 1 4.3745495e-07 2.052691e-06 6.1441534e-07 26 -1 2099.9442 
16.49617 0.8886492 -0.50418717 0.064573499 -0.026881531 -0.064876083 0.5 -5.5455087 291.68035 -12.105761 0.1796911 0.25518925 -0.22968986 1 10 2 -3.6851772e-05 2.3793457e-05 -0.00017196395 71 -1 2100 3.9274797e-05 -8.1119405e-05 -5.7754602e-05 10 -1 2100 
2.4155277 3.5881105 2.126311 0.43969642 -0.2811472 0.09418019 0.5 -6.7535871 301.39725 22.681297 1.0487221 -0.35912476 0.90697051 1 10 1 -1.716223e-05 3.027577e-06 1.0203046e-05 5 -1 2025.4337 
9.2121105 0.84417033 5.1665087 1.0771644 0.35562612 -0.3757573 0.5 11.195858 333.60735 -8.0928249 0.45347788 -1.5313469 0.04808272 1 10 1 2.1639163e-05 2.7007663e-06 -4.2566115e-06 67 -1 1534.7521 
2.5003264 4.7691692 7.5067497 2.406473 -0.03562512 0.42758995 0.5 0.14995846 303.01572 39.51401 -0.020669823 -0.34516845 0.78753508 1 10 1 -3.7786036e-05 2.457604e-05 1.994943e-05 74 -1 1931.1862 
9.0916444 5.1150731 2.9550458 1.3256275 0.023518703 0.1786158 0.5 6.5060071 305.33148 -5.9527018 -0.23083568 -0.34348703 -0.068040455 1 10 1 8.3986001e-07 4.0266394e-06 -8.092684e-07 39 -1 2021.989 
4.1012216 8.1193734 2.3600725 0.55144846 -0.085615876 0.077525761 0.5 4.2146398 306.93947 20.7784 -0.44756592 0.68660598 -1.4266333 1 10 1 1.193675e-06 3.2533892e-06 -2.2611865e-06 61 -1 2033.6363 
15.436466 6.0158935 -1.1989919 0.010487865 0.026548271 0.0081529177 0.5 5.0682727 -8.5222531 7.5897006 -0.008385917 0.027411564 -0.062863706 1 10 1 -5.3320057e-06 -3.1138991e-05 -7.4421465e-06 60 -1 2100 
10.198325 8.3950509 6.1863052 2.0006603 0.19772769 0.0049396767 0.5 7.8826679 302.12143 42.798463 -0.4131957 -0.15412579 0.087767005 1 10 1 1.2408588e-05 -5.6108437e-07 -2.8725039e-06 69 -1 2023.2746 
19.054463 0.70843433 5.2400126 1.5620084 0.14080352 0.026453314 0.5 10.661419 325.63551 28.587796 -0.015248736 0.0032673933 0.2220425 1 10 1 1.1507723e-07 -1.0643426e-05 4.7156929e-06 69 -1 2051.8868 
19.911566 6.9830141 -0.36259853 -0.026428903 -0.030536893 -0.0034359036 0.5 3.6575429 201.98326 6.9239957 0.10388403 -0.23709765 0.023150853 1 10 2 -0.00036231424 -0.0002835289 0.00029864468 31 -1 2100 -0.00038222266 -7.7351166e-05 0.00019458617 25 -1 2100 
16.72076 8.8004717 -1.200073 0.0086022427 0.0073542278 0.0094757295 0.5 6.7986657 5.2654942 0.064558263 0.013484368 -0.030569876 -0.0078085748 1 10 3 -7.6902174e-05 4.4803382e-05 0 -1 0 2100 8.6518103e-05 -2.1803075e-05 3.5042259e-05 28 -1 2100 4.9597716e-05 -0.0001349182 -0.00013070634 16 -1 2100 
14.987069 7.0392594 6.4461491 1.8174208 -0.075129927 0.21156179 0.5 14.493352 379.36084 -6.552895 0.38130286 0.31134094 -0.38614594 1 10 1 -1.866189e-05 2.9586259e-05 -6.4046349e-06 70 -1 2033.7544 
3.4283592 9.5170819 9.4396047 3.147787 -0.15507468 -0.097090549 0.5 -30.387112 230.1711 -0.26051421 0.092013931 0.058327691 0.6307629 1 10 1 9.0220771e-06 -1.1174635e-05 -3.1538558e-05 79 -1 1812.9789 
3.9088407 8.537258 -0.35630564 0.042297725 0.040620366 0.009117579 0.5 -10.357531 1.1605205 -7.0601835 -0.090385978 0.096451754 -0.087681423 1 10 2 0.00019703856 0.00015521961 -1.3244687e-06 54 -1 2100 -2.769381e-06 -3.1027941e-05 -4.8718374e-05 22 -1 2100 
18.97779 3.0475986 -0.12669946 -0.10592876 0.094261884 -0.032062236 0.5 -2.7615917 243.60973 -0.99324738 -0.21564013 -0.045692007 -0.14962533 1 10 1 -0.00016346719 -5.3203338e-07 5.654722e-05 64 -1 2100 
5.2034339 2.5845846 2.2480538 0.41641202 0.045379963 -0.31192503 0.5 32.629705 258.14915 -25.0828 -0.89270053 -0.87052109 -0.36813397 1 10 1 -2.0294996e-07 -8.9736137e-06 9.3169218e-07 38 -1 2069.7582 
7.1440983 4.0837735 2.6454934 0.46418313 -0.010186059 -0.21344865 0.5 -3.3733956 302.91106 -4.7261173 0.75282522 0.39778793 -0.64862433 1 10 1 8.1625454e-06 -1.7195793e-06 -9.570856e-07 69 -1 1593.24 
10.461641 3.4891465 9.0634 2.9585329 0.089051268 -0.028916772 0.5 -9.067545 334.84358 -9.1447382 -0.35655644 0.62555588 -0.52145616 1 10 1 -7.4386341e-06 0.00012329777 0.0001145321 84 -1 1994.5125 
12.40401 3.531391 0.34621907 0.020881963 0.09061026 -0.021192861 0.5 -1.7826884 355.38244 21.65209 -0.073248695 -0.015239063 0.11007469 1 10 2 -9.144411e-05 -0.00021053158 0.00024730976 49 -1 2100 0.00015925983 -0.00040303356 -0.00013796585 33 -1 2100 
8.2790496 6.45583 0.21918693 0.071839086 -0.07741712 0.044729759 0.5 22.809492 199.19241 3.6264045 -0.13869564 0.13554868 0.38045792 1 10 1 -1.5380692e-06 2.5425448e-06 -1.7532886e-06 14 -1 2099.9964 
8.2500001 9.6074023 7.5505055 2.1702966 -0.053506645 0.030204841 0.5 -4.7936339 314.74995 -41.743164 0.0045653253 -0.096335157 0.054101124 1 10 1 1.2178801e-06 -8.7597174e-06 4.305439e-06 80 -1 2016.9987 
3.6522971 5.2581966 0.92271799 0.070730191 -0.014403589 -0.36002088 0.5 24.832652 326.48052 -16.030015 -0.19409636 -0.33439258 0.22474791 1 10 1 -1.9675786e-05 9.2085026e-08 -5.4101866e-06 56 -1 2096.4142 
14.095935 3.2685527 7.3645159 1.9405787 0.62042945 0.2298376 0.5 46.587112 351.2181 -0.34900978 0.52384951 -0.018357964 0.37665129 1 10 1 -6.8372619e-05 -3.1923305e-05 2.7578888e-05 92 -1 1877.7094 
18.097483 3.082473 5.9320575 1.729185 0.38441566 0.28318072 0.5 8.9728016 327.89019 -16.936842 0.63997015 -0.7395223 -0.37242186 1 10 1 -2.3949215e-06 2.1751727e-05 -2.1187751e-05 74 -1 2073.7265 
4.6878976 8.7138175 6.5923004 2.2655352 -0.02063531 -0.20250467 0.5 9.763782 276.02008 -3.7958016 0.28724101 0.64321067 -0.083002988 1 10 1 1.8193273e-06 4.8463417e-07 -1.376212e-06 92 -1 2078.1993 
2.576323 5.3367337 6.3918877 2.2037245 -0.13133523 -0.090572217 0.5 5.8814605 221.61363 -17.517684 -0.72139376 0.030492512 0.34849022 1 10 1 -4.0615597e-06 -7.3663791e-06 8.7543337e-06 67 -1 1879.5068 
1.2745992 4.1365922 3.4597706 0.81893695 -0.21936405 0.3576069 0.5 -32.197308 303.27712 -7.6253861 -0.34375748 -0.031377525 1.2421351 1 10 1 4.4138388e-06 -1.1194435e-06 -3.1932103e-06 74 -1 2027.8924 
19.044014 4.8569057 8.8103167 2.7496857 0.028627471 0.36103675 0.5 1.6403128 299.64159 24.533415 -0.9245691 0.057592595 -0.38471807 1 10 1 -5.6823714e-05 -0.00016869286 -0.00011056531 89 -1 2063.3403 
4.6183831 0.95313513 0.90741769 0.05794052 -0.058601073 0.0769871 0.5 2.6022931 80.480593 1.1499442 0.27821574 0.20653971 0.20927227 1 10 1 1.3137916e-06 1.0537065e-05 -4.6977854e-06 24 -1 2099.9819 
3.6485308 3.8975013 3.2671131 1.1000345 0.076675727 -0.12076954 0.5 -26.10547 382.50071 25.549064 -1.7972401 0.79854926 0.13572614 1 10 1 -3.2333533e-06 5.7460397e-08 2.5611434e-06 69 -1 1803.9908 
16.060038 6.531685 1.2138485 0.32330963 0.16281952 -0.023575618 0.5 11.704167 305.86969 0.99094894 -0.19279016 0.11489611 0.27393772 1 10 1 8.434672e-06 -3.6194113e-06 -3.0194602e-06 46 -1 2092.3136 
2.188691 2.5402745 8.3558278 2.7814846 -0.14432505 -0.072533288 0.5 -7.0862242 374.30029 -37.469886 0.053567513 -0.35519167 0.19513517 1 10 1 -4.272611e-05 -1.0637026e-05 1.4478035e-05 92 -1 2026.5793 
10.493544 0.072931221 4.8374325 1.0571172 0.22910807 -0.074240122 0.5 -4.6540485 331.70818 1.9739474 -0.43304436 -0.74423421 0.10246459 1 10 1 -3.9228679e-06 -4.2849427e-06 6.363186e-06 74 -1 2091.9161 
8.85884 1.5449545 2.259542 0.66613476 -0.080288745 0.030787275 0.5 44.360426 241.63678 -58.982229 -0.0063768593 -0.07678975 0.51586485 1 10 1 -1.9033667e-06 -3.115202e-07 4.7413651e-06 100 -1 2089.5209 
2.8531088 7.1069138 3.2014768 0.75300846 -0.3913862 -0.38173458 0.5 -23.4555 329.27796 -19.786061 0.020772314 -0.09927847 -0.036045596 1 10 1 3.2917436e-06 2.4124224e-07 -1.0821145e-05 104 -1 2070.1914 
18.272738 0.63946285 -0.49742065 0.032787253 -0.022065608 0.021157444 0.5 10.808531 179.82714 6.969054 0.0087510803 0.020619809 0.015820867 1 10 2 4.6696965e-05 -9.2111892e-06 -2.8320519e-06 16 -1 2100 7.000986e-05 -4.6821931e-05 5.6707746e-05 0 -1 2100 
16.784668 9.5068011 1.726852 0.23296988 -0.32313901 -0.19882954 0.5 -1.1786784 335.74892 3.9486212 -0.43256502 0.76591443 -0.20971478 1 10 1 -1.0541464e-06 3.0615724e-06 -6.3803652e-07 95 -1 1989.4047 
13.158051 1.159007 4.8895461 1.2505978 -0.28304885 0.38666073 0.5 -20.888127 351.96184 0.57201581 0.17261322 0.46342787 0.16431746 1 10 1 -1.0059731e-05 -5.4807654e-06 1.4472887e-05 95 -1 2079.9342 
1.1217092 6.7015058 8.4846453 2.6900916 0.19338114 0.17078294 0.5 -4.168891 320.15344 -15.494326 -0.21237202 0.70557253 0.11741123 1 10 1 -3.3023347e-07 1.913704e-08 1.8268494e-06 99 -1 2073.2301 
12.597684 5.7996404 2.7335011 0.64468145 -0.036866871 -0.27276978 0.5 -9.9340766 267.19005 -2.6438875 -0.33624841 0.74404502 0.17331203 1 10 1 2.0211359e-05 1.5799818e-05 -1.9165733e-05 86 -1 2041.9414 
1.1732155 0.69624039 9.276877 3.166369 0.43759501 -0.26352154 0.5 3.975732 356.16948 38.479834 -0.41598417 1.5151527 -0.27825472 1 10 1 3.2802676e-05 7.022214e-06 -1.6320404e-06 84 -1 2077.5236 
0.29176551 0.48285391 0.80395009 0.21349252 0.021006645 0.0087540109 0.5 15.410634 360.24345 -1.8656169 -0.92770478 0.17960771 -0.056266737 1 10 1 -4.6893866e-06 -1.7785527e-06 1.8380119e-06 107 -1 2088.9229 
18.310612 5.0641801 0.67588688 0.11280829 0.19280825 0.058878072 0.5 -2.0871498 279.15756 9.68371 0.010396303 0.33169409 0.028102348 1 10 1 -2.7000566e-06 -1.31554e-06 2.3991142e-06 62 -1 2097.2227 
7.3298585 6.7702512 0.22000917 0.050373896 -0.053175286 0.025503626 0.5 -11.084622 316.26246 -10.839896 0.09929052 -0.049271286 -0.45910591 1 10 2 -4.530839e-06 -1.3812836e-05 5.1585484e-05 91 -1 2100 6.2650262e-05 -4.985797e-05 1.5616842e-05 59 -1 2100 
6.8227941 7.032481 7.4445843 2.4083714 -0.66742493 0.16290305 0.5 8.9338989 330.41566 -23.660282 -0.63438324 -1.3806891 -0.80142876 1 10 1 1.3688744e-05 -7.4544171e-06 -1.9238336e-05 79 -1 2057.5597 
2.0257095 2.4963133 0.42220213 0.071122868 -0.22694903 0.078807169 0.5 17.081993 262.34583 0.61953693 0.25714506 0.10574957 0.085415813 1 10 1 2.3713066e-06 -7.0567812e-06 2.3530578e-06 5 -1 2099.9992 
17.872035 7.3542777 3.7325244 1.0563035 0.11103522 0.38014232 0.5 -9.9288834 367.31531 -10.47321 -0.35585941 -0.69279375 -0.8799198 1 10 1 5.3641383e-06 1.6117303e-07 3.603362e-06 108 -1 2053.2641 
1.6255118 9.3947586 0.075627414 0.16255775 0.10326758 -0.15299566 0.5 1.6365606 239.16617 13.315098 0.1906438 -0.37639668 -0.41426544 1 10 1 3.1185102e-06 1.7606401e-06 -1.6242898e-06 37 -1 2099.984 
15.108643 8.0237468 6.6401165 2.2466203 0.036727492 0.51106646 0.5 -14.550123 362.48706 21.190018 0.041502908 0.41263098 -0.43352593 1 10 1 -1.5399819e-05 -2.438913e-06 2.1767973e-05 83 -1 2099.9037 
17.329279 7.9727306 0.42716363 0.1112379 0.24979124 0.20934842 0.5 2.518361 339.17459 -9.539579 -0.052110085 0.39348172 0.016925111 1 10 1 1.2867638e-06 1.8597813e-06 -2.0244152e-06 28 -1 2091.191 
10.113157 8.7143903 1.7334737 0.27344238 0.10315402 0.14864891 0.5 -18.473207 286.48944 -0.75190128 -0.22622464 0.070375407 0.43365692 1 10 1 1.2334502e-05 -3.7620088e-07 -4.7682436e-06 121 -1 2010.1697 
1.5308999 0.51441141 5.9746482 1.9333392 0.025441058 0.15184319 0.5 -8.5356753 345.82807 -13.34378 0.52220788 0.94372102 0.4095907 1 10 1 6.3811648e-07 -8.5429923e-06 3.6811013e-06 80 -1 2087.9316 
19.429716 8.2790083 7.1672765 2.8638799 0.24869246 -0.34095247 0.5 -13.304519 370.02724 15.076777 -0.40173375 -0.25815672 0.021167524 1 10 1 3.8364909e-07 1.3463682e-06 -5.8288231e-07 120 -1 2074.8699 
11.210116 1.7626658 0.11143735 0.019680198 -0.028294204 0.023415586 0.5 1.7147742 298.48066 -6.2921485 -0.11260303 -0.13509951 -0.021675286 1 10 1 0.00014436361 -0.00012991881 -4.1123364e-06 8 -1 2100 
17.718174 6.4457329 4.1205681 1.02879 0.2218003 -0.27156991 0.5 21.219528 339.11473 -46.415679 0.30129441 -1.0281207 0.12180505 1 10 1 0.00025882009 -0.00011946748 -0.00017709124 118 -1 2100 
7.7245414 8.6556072 4.6915881 1.3437176 0.15998708 0.10072136 0.5 1.4842503 310.88476 -6.516183 -0.29077437 0.39341602 0.10938615 1 10 1 -9.8863556e-06 2.8165493e-07 2.274666e-06 96 -1 2071.4104 
18.13611 9.7806445 -0.0036743329 0.11656914 -0.14131404 -0.1619789 0.5 -34.180144 297.39593 15.026532 0.11514176 0.12072566 0.057915027 1 10 1 2.8000134e-06 -1.4486832e-06 -1.7399185e-06 107 -1 2099.9952 
16.387002 0.82580172 4.4356779 1.2323112 -0.10084738 0.0024711939 0.5 1.9479116 389.70397 -9.6538189 0.51892854 -0.092859766 -0.7743424 1 10 1 -2.5088952e-06 -2.6249054e-05 5.3520462e-06 98 -1 2004.7943 
15.293573 7.0030955 7.4025652 2.2649325 -0.45367059 0.076104909 0.5 -5.2336239 316.49121 -6.2654346 0.35035015 0.9382668 0.77367126 1 10 1 -5.1219659e-06 -7.7620929e-06 1.8379427e-06 83 -1 2099.6875 
10.81413 0.74803866 7.4896053 2.2090856 -0.039188054 -0.074305662 0.5 -3.3369039 362.45144 10.039736 -0.068474463 -0.20609128 -0.76879075 1 10 1 -5.070146e-05 6.0264921e-05 -5.6319374e-05 92 -1 2091.7109 
5.7923778 5.9510507 2.4496897 0.65831906 -0.45923974 0.067546585 0.5 -0.19512607 365.34221 14.825836 -0.70922467 -0.69036216 -0.81427674 1 10 1 -3.6950931e-05 -4.4059193e-05 7.6235388e-06 126 -1 2079.0157 
2.4709554 9.9580609 5.5727937 1.8017922 -0.090224367 0.12081155 0.5 12.876648 381.14434 6.3458864 0.20229646 1.0732982 -0.10991858 1 10 1 3.5493422e-06 1.4862055e-05 -1.4327058e-05 123 -1 2098.8626 
11.625052 3.7167955 9.2700976 2.6418649 -0.1334847 0.19875975 0.5 7.7456332 368.67258 -3.2711151 0.091312122 -0.12095564 1.0718209 1 10 1 -5.4729973e-06 1.8002974e-05 -4.5032866e-05 89 -1 2098.091 
17.602199 5.9414563 5.870366 1.7933451 -0.087111299 0.040957165 0.5 -32.713418 247.34105 11.585616 -0.23305431 -1.0686972 -0.29845516 1 10 1 9.3735898e-06 7.7388551e-06 -1.6848798e-05 83 -1 2059.1793 
7.464397 2.4360265 8.8352162 2.5964568 0.40969056 0.091759531 0.5 20.337741 324.62651 13.042874 0.92892622 -0.6349194 -0.46343591 1 10 1 -3.2579976e-06 3.8686079e-05 -2.008388e-05 134 -1 2072.6166 
16.495413 6.9695195 5.5958126 1.559761 0.48722063 0.060754138 0.5 -6.1101 342.98506 9.0187835 0.11861547 -0.48199343 0.077090441 1 10 1 -8.5323605e-07 5.9311183e-06 1.3345854e-05 135 -1 2095.8339 
3.838642 7.7455269 7.4582257 2.368968 -0.041311928 -0.043821629 0.5 -5.1896509 271.52507 4.7855446 -0.34187498 -0.17279204 0.10249279 1 10 1 4.272848e-06 1.1290488e-06 1.5605758e-06 79 -1 2052.5407 
5.205324 5.6638107 9.2963077 2.9324053 0.12727249 0.34985705 0.5 -7.65451 366.01044 -34.644981 -0.36454959 -0.6343817 0.34193015 1 10 1 -2.4699412e-05 -3.7118541e-05 8.4879326e-06 110 -1 2084.7221 
19.504013 1.0990723 0.82025968 0.2932458 -0.10138917 -0.098629755 0.5 -20.625076 306.02255 22.959878 0.27033423 -0.5345522 0.24105322 1 10 1 6.6218597e-07 7.04066e-07 4.6807116e-06 113 -1 2099.9722 
18.038729 4.8529146 8.7202377 2.7729459 0.07436056 0.16328943 0.5 -2.1639148 246.02634 -29.632623 -0.0085172729 0.15042499 -0.33599265 1 10 1 1.0104088e-06 6.050513e-06 -1.5872619e-05 99 -1 2099.8034 
0.09111201 4.9843548 8.7836839 2.6385223 -0.086581543 -0.15916644 0.5 47.146336 303.21992 19.308281 0.23580368 0.44267227 -0.29865591 1 10 1 5.2785089e-07 -2.2565851e-05 -3.8436924e-06 99 -1 2099.0478 
15.181014 8.430291 3.4207757 0.61227923 0.20428256 0.16033094 0.5 7.0770086 295.59624 16.794393 -0.2010313 0.077727041 -0.51070788 1 10 1 4.7665742e-06 -5.4531424e-06 1.1649752e-05 138 -1 2058.6687 
10.405119 4.5452146 8.3756755 2.3146352 0.026928232 0.26993631 0.5 -44.091191 333.19954 -5.392123 0.13912263 -0.16546322 0.87996018 1 10 1 1.6994934e-05 8.4628451e-06 1.0473471e-05 89 -1 2098.2962 
1.1667772 6.2795027 1.1708242 0.1684049 -0.31466231 -0.030666588 0.5 0.061651919 264.96224 6.8072249 -0.10328132 -0.28364549 -0.22587366 1 10 1 9.8279007e-06 -1.8014522e-06 -1.0009297e-06 31 -1 2099.7381 
16.777505 1.4422014 2.2651038 0.43095919 -0.062857825 -0.1954797 0.5 -15.367271 314.54029 -7.4810975 0.3411969 0.1378649 0.71423619 1 10 1 -8.6075444e-07 1.2959184e-06 -1.1737489e-07 67 -1 2088.5002 
13.69859 8.6271443 1.5677683 0.4303909 -0.10048908 0.31063744 0.5 -17.144728 318.07009 15.32535 0.51358933 -0.10675766 -0.87263592 1 10 1 7.169094e-07 -2.7539635e-07 -1.9753915e-06 118 -1 2058.0007 
18.768486 9.4077727 4.8880874 1.8093269 0.2336657 -0.36281544 0.5 5.3660386 282.90837 -11.055118 0.029015297 -0.15386562 -0.10323673 1 10 1 4.0239581e-06 -9.111152e-06 -6.3905864e-06 106 -1 2074.9145 
3.6456358 1.7318554 2.9219804 0.76074088 -0.0061730182 0.24619447 0.5 2.8036804 242.50714 0.71145498 -0.15614712 0.35839213 0.79944494 1 10 1 8.6179638e-06 1.3856106e-05 4.8281226e-06 143 -1 2065.1644 
6.2005076 1.6112368 1.2244009 0.14951431 -0.00897032 0.028091252 0.5 -7.3079416 287.11259 -26.852493 -0.46671003 0.23190111 0.32921128 1 10 1 -3.6964062e-06 8.3480917e-06 -8.7023049e-06 100 -1 2094.0881 
9.6638049 7.983554 0.83166295 0.16575683 -0.03479941 -0.015912585 0.5 -0.60667125 327.45849 16.733738 -0.050397857 0.074724256 -0.15362466 1 10 1 -9.4997458e-06 7.5616099e-07 -3.4478173e-07 14 -1 2099.9852 
19.522659 1.6792622 2.2385897 0.78046718 -0.208038 -0.071858613 0.5 -10.969906 344.34512 -18.012524 -0.18138068 0.63486768 -0.1038959 1 10 1 6.277834e-06 -6.1889994e-07 -8.4361357e-06 101 -1 2078.3596 
12.995147 1.9523407 5.9053785 2.1407454 -0.18261766 -0.15966126 0.5 18.604448 324.93118 -0.080063468 1.2596744 0.73584598 0.88145537 1 10 1 5.5296305e-06 5.4215739e-06 -9.8137456e-06 137 -1 2047.7506 
7.3278692 5.5741155 1.3430514 0.12078302 -0.17277109 -0.10904026 0.5 1.9625912 326.2652 33.181399 -0.096846921 1.2178398 0.99525105 1 10 1 -0.00059566005 -0.00061591693 0.00028564878 39 -1 2100 
11.615922 0.8531769 0.20288548 -0.0039460478 -0.058909258 0.062142457 0.5 -46.280366 333.47792 -3.8674772 -0.091790663 0.2482623 0.055475921 1 10 1 -2.9703324e-06 -9.3411704e-07 3.8994003e-06 125 -1 2099.9971 
10.253434 9.6862256 3.7651213 1.129493 0.03513189 -0.036857329 0.5 3.7526999 347.72235 5.7841138 0.035720243 0.50897586 0.14747272 1 10 1 -5.4026264e-05 -3.3056503e-06 7.2518473e-06 104 -1 2099.2387 
15.049524 6.0727574 9.3587992 3.442791 0.10683968 0.033048572 0.5 -4.744992 341.75016 -12.804139 -0.86498149 0.81164484 -0.039822914 1 10 1 -2.9872277e-06 3.8919224e-05 -1.2459094e-05 144 -1 2089.0151 
2.2713533 5.7741332 1.6694931 0.12935784 -0.00059597945 0.10454489 0.5 -6.2681651 209.74433 -3.3626017 0.07077159 -0.13231578 -0.46287785 1 10 1 3.2386216e-05 4.0696916e-05 -9.1061869e-05 73 -1 2089.7706 
15.620308 4.533328 6.2747415 1.8672959 -0.22272478 -0.11063163 0.5 20.842693 275.65147 11.106339 0.2090695 -0.16209754 -0.40306966 1 10 1 8.0012842e-06 -3.4196816e-06 2.5545008e-05 139 -1 2069.1136 
0.051294154 5.6685438 0.98464844 0.05124609 -0.074218769 0.062962794 0.5 7.9534419 275.1172 -15.097312 -0.052612862 0.21082895 0.2957401 1 10 1 8.8596523e-05 7.1054176e-05 7.152196e-05 31 -1 2100 
4.4078506 4.1829304 2.5268085 0.50116286 -0.38672795 0.29383457 0.5 -2.2710594 334.00827 60.7265 -0.021092856 -0.13758638 -0.55573895 1 10 1 -3.6060949e-06 3.1449227e-06 1.9224778e-06 73 -1 2094.0764 
1.7522941 9.9923359 3.5005621 1.3233081 0.28117195 -0.67682377 0.5 -4.9076202 292.09533 -28.984244 -0.13310229 0.024280143 1.5915425 1 10 1 1.7510884e-05 1.6012351e-05 -1.4001662e-05 67 -1 2099.1122 
4.1283207 0.28814388 6.616593 1.9898841 -0.27859152 0.14845708 0.5 2.9579624 380.6938 15.522257 0.67766453 -0.20091551 -0.05076318 1 10 1 -1.0115566e-05 -3.5545648e-06 -2.9808517e-06 96 -1 2096.0638 
6.2227256 3.7534927 2.3835909 0.76675913 0.040730522 0.15058458 0.5 -0.44703421 353.6286 -13.660252 0.21419106 0.48882253 0.28464197 1 10 1 2.1114961e-06 4.3406618e-07 -7.80432e-06 88 -1 2099.6917 
17.346814 7.7856023 4.4670982 1.223181 0.43899041 0.2370286 0.5 25.433865 407.61988 18.050513 0.62779657 -0.2652664 -0.72709918 1 10 1 2.3088228e-05 1.2091857e-05 9.4996781e-06 118 -1 2099.9917 
0.50166462 1.4529727 8.4275023 3.0606992 -0.44346237 0.22377733 0.5 7.5006962 266.69699 -3.7557639 0.29761593 0.44954521 0.30458041 1 10 1 -7.891817e-06 8.8697473e-06 1.7507262e-05 103 -1 2080.6707 
12.926334 6.2405286 5.4474061 1.6243341 0.034918828 0.31177761 0.5 -19.698103 315.14054 1.7129199 0.40648751 0.33742535 -0.0071240231 1 10 1 1.9669008e-07 -4.2815227e-06 1.3903949e-05 83 -1 2091.6322 
11.22754 5.9371693 5.5936711 1.8726584 0.15839322 0.50657013 0.5 -17.844209 371.01385 17.089637 -0.54966557 -0.67594239 -1.6192626 1 10 1 -5.6568292e-07 2.787254e-06 7.5429266e-07 148 -1 2052.1561 
14.744443 9.7942691 2.0928817 0.40180784 -0.033145405 0.040498617 0.5 -0.95453532 338.38144 31.045779 0.10288214 -1.0189043 -0.07039229 1 10 1 1.030055e-05 -2.7740162e-05 2.7003665e-05 146 -1 2093.0003 
9.0728619 9.0589868 1.7987342 0.54317682 0.18850971 -0.19886851 0.5 0.93395746 269.68018 -35.203506 -0.61075534 0.70895896 0.099918409 1 10 1 1.3443063e-05 2.3448265e-05 1.1161721e-05 122 -1 2097.0125 
4.7573016 8.0550167 4.6837416 1.7662281 -0.16023073 0.052109728 0.5 -5.0679693 312.64149 58.637217 -0.59500695 0.8356287 -0.24301264 1 10 1 -3.0922779e-06 1.721254e-06 3.6457102e-05 70 -1 2099.9518 
1.8472723 9.9448914 2.4531809 0.98271895 0.018019744 -0.43161539 0.5 13.901398 299.3954 -22.674106 -0.43173779 -0.0077957132 -0.1514417 1 10 1 -2.1119913e-05 -2.5278536e-05 -1.2367933e-06 162 -1 2098.7059 
9.7932231 8.6204648 3.6663789 1.0373683 0.39404178 -0.039656363 0.5 -52.104992 295.38653 34.225209 0.61504531 0.38528356 0.32381137 1 10 1 -3.1985802e-06 1.39292e-07 9.5916456e-06 156 -1 2097.9644 
2.22194 1.6359664 1.0594154 0.19833154 -0.076343867 0.15152031 0.5 -3.130532 260.57872 10.667404 0.29352851 -0.022251425 -0.12824047 1 10 1 3.5394146e-06 -5.2888812e-06 -8.8191121e-06 117 -1 2099.36 
2.4400217 2.0094234 2.9653896 0.55756837 -0.055551088 0.33881103 0.5 0.6927302 299.14706 14.220932 0.29537256 0.13723989 0.53411735 1 10 1 -6.5678144e-06 -9.8966904e-06 4.1658301e-06 149 -1 2096.9382 
15.226692 0.79525278 1.1700049 0.31462786 -0.029647442 -0.18495668 0.5 7.8241841 312.7197 13.04295 -0.23145724 0.76479004 -0.70876642 1 10 1 1.8719818e-06 3.8811133e-07 -3.5112198e-07 43 -1 2099.7204 
18.511985 5.4237585 -0.2351693 0.026667656 0.054866455 0.0028705119 0.5 11.773307 271.12463 15.321153 -0.22042241 -0.086527954 -0.21295472 1 10 1 9.3983045e-06 -9.5081836e-05 -3.5449859e-05 114 -1 2100 
12.197645 8.3140602 8.8948146 2.5629103 0.30168837 0.26743314 0.5 -6.2517275 407.21184 -8.1952006 -0.34908349 0.91985729 -0.21259148 1 10 1 -4.2798755e-05 4.7924064e-05 6.366197e-05 92 -1 2088.0543 
9.7619485 2.7592971 1.8420663 0.33573676 -0.030627901 -0.020471796 0.5 -11.40799 292.11324 16.280754 1.3209095 -0.035400709 0.97351507 1 10 1 -1.0354147e-05 4.4115331e-06 4.1592495e-06 105 -1 2080.47 
2.5893111 2.1372792 5.440031 1.4078501 -0.01287242 0.43784704 0.5 12.715597 321.55026 -5.2124324 0.27853987 0.076388897 0.3680487 1 10 1 -1.1150287e-06 7.5589478e-06 4.9917477e-06 70 -1 1895.2375 
13.277434 7.6283093 3.2887516 0.79121237 -0.047401232 0.14329998 0.5 -18.510747 338.13753 19.346469 -0.77226531 -0.16151284 0.20852762 1 10 1 -2.5777799e-05 3.6048488e-06 -2.2098309e-07 143 -1 2086.8909 
11.321818 4.752077 7.0264236 1.9225067 0.11541227 0.18708904 0.5 38.547886 357.23638 2.752947 -0.51466043 0.32970753 0.23053396 1 10 1 6.5411537e-06 3.1977461e-05 -3.3208554e-05 99 -1 2083.4948 
10.046439 6.8481037 8.644703 2.4658053 0.15733475 0.3208633 0.5 6.1617709 383.7034 24.755281 -0.16082042 0.30597215 -0.085346477 1 10 1 -1.1515444e-06 -7.2314332e-07 5.9603759e-07 116 -1 2087.023 
2.4075486 4.6218947 2.3275515 0.43529283 -0.24485704 0.023864073 0.5 22.232495 352.96512 5.2464813 0.31606406 -0.26867033 1.1172307 1 10 1 8.1244088e-06 3.507895e-06 -6.6150314e-06 73 -1 2099.2368 
16.860443 5.3081154 0.57973267 0.20725043 -0.12268057 0.09936078 0.5 -2.0195998 269.80239 -3.3258456 0.26644109 0.47608052 0.20638572 1 10 1 8.7140064e-05 4.1840815e-06 8.7438044e-06 62 -1 2100 
13.139904 4.8493696 1.2301804 0.12960904 0.12053727 0.072918044 0.5 7.9257857 333.62304 0.98201877 1.1246728 0.27192979 0.584464 1 10 1 -1.5311406e-06 7.179386e-07 9.4934303e-07 35 -1 2095.5711 
16.549081 8.8344292 -0.21567701 0.073744352 0.018959498 0.015979144 0.5 -15.512455 346.22513 10.422304 -0.12899758 0.10488919 0.21742119 1 10 1 0.00019073755 8.8695314e-05 3.0205016e-05 82 -1 2100 
18.772522 3.8462548 2.5303265 0.44233534 -0.04263626 0.11015987 0.5 8.2243412 293.04907 -34.17838 0.30329105 0.1156383 -0.2175334 1 10 1 -1.8614541e-06 -6.4252466e-06 1.0358997e-05 98 -1 2094.0327 
12.760466 6.9882087 -0.50730415 -0.062667831 -0.011867665 -0.067627554 0.5 35.30894 137.8983 -14.069995 0.042841709 -0.27207233 0.09102644 1 10 1 4.4969388e-07 2.7516127e-06 2.4905218e-06 51 -1 2099.9706 
6.1475309 2.82913 2.7616015 0.61624811 -0.12388621 0.06501101 0.5 -4.838192 305.47466 46.855573 0.23730466 -0.25229222 -0.072898703 1 10 1 -2.7642113e-05 5.7855319e-06 8.7080008e-06 164 -1 2099.9893 
13.100179 3.9892176 2.7692934 0.91470639 -0.12864458 -0.13130547 0.5 -1.6176283 353.88105 -8.695813 0.43493597 -0.4029817 -0.53797808 1 10 1 4.6942996e-06 -2.8244198e-06 -1.862569e-08 88 -1 2074.0971 