restart_version 2
name H10A22L0M0.5B0.5
xmin 0 xmax 20 ymin 0 ymax 10 zmin 0 zmax 12
dt 0.0001 t 3000 tmax 3000 save_count 500000
dim 3 gravity 0.37460659 0 -0.92718385
options_fstat 1 options_data 1 options_ene 1 options_restart 1
Species 1
k 200000 disp 25 kt 57142.857 dispt 25 mu 0.5 rho 1.9098593 dim_particle 3
Walls 1
numFiniteWalls 0 normal 0 0 -1 position 0
WallsPeriodic 2
normal 1 0 0 pos_left 0 pos_right 20 shift 20 0 0
normal 0 1 0 pos_left 0 pos_right 10 shift 0 10 0
Particles 2000
2.4996603 3.4880585 9.8727609 16.871807 0.26617645 -0.13543106 0.5 -11.26084 413.8192 0.55993366 -0.52095958 -0.14261237 -0.32052306 1 10 0 
10.216033 2.8026271 1.3621127 13.319217 0.061351154 -0.73938919 0.5 -63.712295 4498.9902 -173.34368 1.6063177 1.8649715 4.1057895 1 10 1 -0.00030545899 0.00012629119 0 -1 0 2996.3816 
8.7037868 5.862731 4.3019643 14.869312 -0.16574202 0.28492662 0.5 -80.453885 4324.8281 56.874928 1.5211708 0.52112481 0.4117525 1 10 1 3.8384934e-06 -7.8270874e-05 -7.9988607e-06 1 -1 2922.9046 
18.274567 6.0962402 3.2719275 13.881541 -0.35921091 -0.44883666 0.5 -28.121413 923.29169 -32.490527 -0.39488188 0.8834145 -0.23913359 1 10 1 0.00031949771 -7.4229645e-05 0 -1 0 2983.0418 
5.8161033 4.2201996 4.1266644 15.231565 -0.43992872 -0.44360247 0.5 -20.009226 2808.7536 -51.573524 -0.7522167 0.8233772 1.143386 1 10 1 0.00029717144 0.00024652284 0 -1 0 2870.6266 
5.8154856 7.2580117 3.3364888 15.733928 0.50113588 0.44944208 0.5 93.889553 2801.9286 72.269821 -0.35969168 -3.2695455 0.99374454 1 10 1 -0.00023587082 0.00011079565 0 -1 0 2889.9071 
12.644321 0.21246354 5.0846506 15.905934 0.19722796 -0.15564946 0.5 28.622281 1629.6412 2.2831771 -0.56807532 0.91092241 -0.70278309 1 10 1 8.1036608e-06 1.2893854e-05 -7.3047569e-06 5 -1 2982.075 
0.48837046 1.6038657 6.7902359 16.361223 0.26019988 -0.0077370848 0.5 -26.785007 1636.8546 -12.574775 0.10240479 -0.13818614 -0.55079282 1 10 1 -3.7092937e-05 1.7423359e-06 9.6627354e-06 0 -1 2591.7629 
1.3978324 1.4436452 4.6312349 15.974655 -0.30183695 -0.3253192 0.5 26.704983 4702.7339 -20.828152 0.54465959 -0.14366935 0.33214143 1 10 1 -8.2618024e-05 -4.3076459e-05 7.000729e-05 2 -1 2907.1955 
6.4071352 5.1797268 0.62378771 8.7784226 0.80431213 1.9173784 0.5 -96.486526 1952.5895 -54.178938 0.095916432 21.1775 6.8701757 1 10 1 -0.00034090315 0.00015847906 0 -1 0 2999.9364 
6.7255745 6.2251829 4.1457188 14.966629 0.76465503 -0.2118579 0.5 -37.083972 757.18962 28.383132 1.1578624 0.69664643 0.37389565 1 10 1 -2.3245828e-05 -1.5384258e-06 -3.8061588e-05 5 -1 2997.3265 
4.143389 9.1059123 6.4337661 15.800886 -0.14569645 -0.40088716 0.5 20.112774 1201.7916 27.826987 -0.7592313 -0.085213111 0.57954782 1 10 1 -1.4553073e-05 -1.2374949e-05 -1.6626682e-05 6 -1 2930.8975 
14.724364 5.3401593 3.4472446 15.539155 0.90006383 -0.20941329 0.5 64.949834 3108.274 -29.919078 0.0073314964 1.7138178 0.86881602 1 10 1 0.00036469362 0.00017253004 -0.00013485792 3 -1 2994.809 
2.256976 8.5766539 8.2108306 16.336688 0.10951784 0.36364676 0.5 5.3047209 1665.2072 -36.508083 -0.36898495 0.25222016 -0.4685178 1 10 1 9.1656867e-07 2.5045383e-05 3.3534912e-05 10 -1 2927.5733 
10.785023 8.8126211 1.5363914 12.743304 0.1506879 0.21672281 0.5 -1.7006972 2040.8162 -50.621583 -0.62783454 5.1250378 -3.5105415 1 10 1 -7.7250867e-05 -2.1851099e-05 8.1406353e-05 12 -1 2992.5139 
3.5989171 7.0361281 3.8081549 15.523266 -0.43966169 0.53928517 0.5 -34.776656 2793.3118 -45.120951 -3.0799521 -0.53501496 -0.78858013 1 10 1 1.0873013e-05 7.7697699e-07 -2.0330503e-05 10 -1 2975.9301 
16.838452 6.825942 2.486454 13.6737 -0.43404876 -0.53834035 0.5 -23.888843 2270.9863 -45.275691 -1.3023405 0.016945222 -2.2489416 1 10 1 4.0314461e-05 -8.356645e-06 0 -1 0 2990.1919 
7.6243803 9.6238599 2.5234855 14.203691 0.33115657 0.4499993 0.5 69.569109 5788.8713 -106.59825 2.6403388 1.8623695 0.84746599 1 10 1 -2.5533988e-05 1.1318931e-05 1.7122229e-05 16 -1 2969.9088 
1.5705365 0.49555463 7.5505987 16.111455 0.67783317 0.11764379 0.5 -39.754296 2443.0965 54.03575 0.086804966 0.35143728 -0.40411517 1 10 1 1.2297523e-05 -1.1787157e-05 -2.4870665e-05 7 -1 2993.9604 
14.423044 2.4251165 1.4876715 14.237834 0.19713878 0.41358455 0.5 -15.433657 3507.3134 -104.7769 -0.46458042 -3.8048542 1.966384 1 10 1 -4.286272e-05 -3.2351055e-05 1.6790166e-05 1 -1 2996.0519 
1.8886582 7.9263792 8.8824311 16.477466 -0.090207714 0.10747973 0.5 -24.291845 1319.8516 -0.59291199 0.30484214 0.18138606 0.70525279 1 10 1 3.9853618e-05 -4.396862e-05 -1.9618804e-05 13 -1 2999.9486 
17.465819 6.5157007 6.652923 16.453704 -0.23920211 0.10127652 0.5 -83.683034 1026.1426 49.722926 0.91823647 -0.028812359 1.2921153 1 10 1 -2.3098335e-05 2.3022379e-07 -1.7675582e-05 20 -1 2948.5247 
16.366928 4.6192245 5.5547564 16.101082 0.025204124 -0.044680246 0.5 70.243945 1737.9376 11.492565 -0.81680933 1.0290681 1.142357 1 10 1 7.1943856e-06 -2.8256123e-05 -4.4418307e-05 20 -1 2821.4657 
14.553923 5.1146729 2.4645776 11.924705 0.3195976 1.731103 0.5 -16.112619 2623.7137 14.422129 -2.8422513 1.5898812 -4.3678662 1 10 1 2.3604012e-06 0.00014446275 -2.7800041e-05 12 -1 2999.8565 
4.2642527 5.6083942 5.6764866 16.36832 0.10311186 0.40086924 0.5 24.600337 792.39584 -45.72834 0.026662727 -1.1451558 -0.58318383 1 10 1 -1.5437356e-05 -1.3932118e-05 3.1552559e-05 22 -1 2694.8673 
4.4405297 6.2305675 0.80338908 11.117187 -0.93477149 -0.3384328 0.5 -25.420919 1222.6217 7.4830008 -6.1389986 -2.7885275 0.27511569 1 10 1 0.00016124839 1.2554181e-05 0 -1 0 2994.253 
1.0974775 6.7891574 0.53242383 9.544027 1.6805605 -0.71913677 0.5 -74.365351 3196.9945 26.56811 5.9871093 4.3930464 0.5956246 1 10 1 -0.00031030864 0.0001133932 0 -1 0 2999.5308 
17.803976 4.457514 9.1117459 16.557307 0.23559356 0.74233497 0.5 58.357105 1901.6196 -50.835847 0.5541655 -0.093443336 -0.42001158 1 10 1 -6.3647326e-05 -2.1215099e-05 3.8752369e-06 11 -1 2920.6048 
0.24154011 3.2562233 0.61646601 7.491073 1.673603 -1.3450956 0.5 -28.671849 1277.8512 -64.340322 7.300691 17.156031 -0.12419265 1 10 1 -0.00020946942 4.721081e-05 0 -1 0 2999.8545 
4.5573917 2.1830596 7.8491001 16.652576 -0.1824795 -0.17710272 0.5 68.511176 1094.0156 28.110476 -0.022993444 -0.036639715 -0.17284375 1 10 1 1.0272848e-05 9.7337126e-07 -2.9716844e-06 6 -1 2685.1561 
6.9215016 3.6867176 3.4123226 15.120716 0.010537789 0.0342304 0.5 -22.226481 1278.5297 -3.8879979 -0.96887934 -1.2702394 -2.0032465 1 10 1 -0.00011999561 -4.6883154e-05 -6.6401796e-05 12 -1 2900.0123 
13.200241 4.468244 6.6247353 15.836016 -0.017789147 0.30340199 0.5 22.515922 1125.2833 -52.904259 -0.95187117 -0.27586852 -0.27224774 1 10 1 2.4843621e-05 -2.882374e-06 -1.265688e-05 21 -1 2850.6824 
11.727733 8.1312861 5.3694293 15.582851 -0.33724255 -0.4006366 0.5 -43.833357 765.38914 -47.313269 0.45025845 -1.5081304 -0.18257809 1 10 1 -1.0547964e-05 -1.2102987e-05 -6.902294e-06 6 -1 2932.4918 
8.3469201 4.0482381 8.750506 16.750083 -0.099008264 -0.29692623 0.5 19.092057 1738.6014 90.304174 -0.024397953 0.41489286 0.058629285 1 10 1 7.9413713e-06 4.9615918e-06 -1.1629773e-05 27 -1 2956.5927 
10.054278 2.6366713 6.4217681 16.019506 -0.13681011 -0.3787525 0.5 -209.64033 3147.7072 -14.850475 -0.55259566 -0.10481328 -0.1595639 1 10 1 -6.0455659e-06 -3.0668687e-05 1.7103376e-06 33 -1 2760.7602 
0.33430799 6.4567789 1.5280748 13.960683 -0.20107085 -1.0252175 0.5 -2.6870628 756.18845 -43.872899 2.0355829 -1.8756104 1.6111368 1 10 1 -1.660138e-05 -4.0737452e-05 -2.8849229e-06 26 -1 2994.4442 
3.1847878 4.3746775 6.9007465 16.730055 -0.11228596 -0.59175852 0.5 68.710925 1186.6488 27.056329 -1.3805887 0.55988696 -0.39570282 1 10 1 -3.2863448e-05 -1.3711175e-05 3.1138463e-05 10 -1 2685.7346 
1.007238 2.751486 3.5014385 15.623012 -0.63394546 0.13374212 0.5 50.691363 4598.8919 48.863436 2.1136714 -1.8154765 2.179802 1 10 1 -0.00010465165 -0.00012539591 0.00012655008 1 -1 2948.5407 
12.025142 6.855423 9.655975 16.573339 0.052406074 -0.014319959 0.5 -21.95058 410.31407 55.85015 0.91839627 0.46239297 -0.15870964 1 10 1 7.9339694e-06 2.9588944e-06 -1.6610913e-05 18 -1 2891.436 
3.4362797 4.823844 9.2387903 17.069162 0.070215816 -0.088642595 0.5 65.415777 3025.7147 -25.365755 0.10122453 0.62990271 -0.49834155 1 10 1 8.6629305e-06 2.1294729e-06 2.8025911e-05 33 -1 2904.3265 
11.993745 8.792267 2.8732012 13.481794 0.33258553 -0.72915221 0.5 -88.029224 2121.5229 60.54347 2.5082968 4.5539538 0.9065835 1 10 1 8.6827567e-05 3.0658581e-05 1.8153078e-05 14 -1 2997.3108 
11.324403 2.8346368 7.1920284 16.224101 0.1252214 -0.36857179 0.5 -55.251313 2288.2551 -80.156718 -0.066282526 -0.64902731 -0.66389915 1 10 1 -9.058977e-06 -2.727827e-05 1.1158831e-05 34 -1 2998.2143 
0.99005712 2.4181335 7.164897 16.370506 0.0056044433 0.22074964 0.5 33.721763 388.68036 -22.737136 0.87050297 -0.65831471 0.25068751 1 10 1 -6.4981514e-06 3.8883992e-07 7.5966546e-06 7 -1 2999.3323 
13.428855 5.7716564 5.1400118 16.206945 -0.16321721 -0.33156681 0.5 -26.029335 2313.8445 91.470253 1.2082121 -0.64032651 0.23666875 1 10 1 -4.7453592e-05 2.3377398e-05 1.897422e-05 2 -1 2990.4372 
13.380409 8.0149877 4.1342381 14.290556 0.60260169 -0.17325554 0.5 48.277814 2357.1049 -73.639402 2.7156545 0.22781873 2.3921468 1 10 1 4.5875155e-06 4.0797348e-05 -8.2608022e-06 10 -1 2980.7305 
14.595779 8.8355677 8.6822898 16.816392 0.17260628 -0.30488678 0.5 -11.233818 443.61027 -18.156151 -0.58222081 -0.075607199 -0.64279554 1 10 1 1.1856762e-05 -3.3654595e-06 -1.1498209e-05 38 -1 2707.389 
11.327531 1.0707026 6.4528739 16.271431 -0.098070546 0.26859797 0.5 -34.524094 3782.3919 55.940318 -0.22451364 -0.26908415 0.56701878 1 10 1 0.00015783857 0.00019919097 -6.7866633e-05 17 -1 2951.0184 
13.642168 9.596746 2.5773722 14.996362 -0.11201225 0.43068705 0.5 -10.033471 1931.4118 -88.68995 1.8452892 -0.72205334 -2.2033513 1 10 1 8.5605934e-05 -8.3851192e-05 3.998012e-05 14 -1 2983.0634 
12.157933 4.7067033 8.1037256 16.678489 0.19936174 0.68022017 0.5 15.110365 1053.7924 9.2607575 0.66097749 0.088930645 -1.2579874 1 10 1 1.4337515e-06 -4.9990999e-06 3.4608391e-06 34 -1 2883.5066 
17.629967 2.6316639 4.2355169 14.949223 0.23509231 -0.23011587 0.5 -2.9216777 396.78927 32.772326 -1.1623898 1.750472 -0.60801246 1 10 1 1.9455646e-05 -1.1457965e-05 7.572316e-06 45 -1 2854.5274 
19.463519 7.2856392 7.630077 16.661435 0.38969107 -0.40688332 0.5 11.49398 1394.307 3.7896326 0.48429855 -0.13793711 -0.010298288 1 10 1 -1.4148498e-05 2.1338998e-05 -2.979881e-05 39 -1 2950.3338 
2.6437659 5.2281523 3.8371512 15.431871 -1.0817009 -0.29963347 0.5 -5.9962877 3132.6013 -11.089873 3.7859359 -0.82351918 0.94140646 1 10 1 -3.7920693e-05 -1.6138181e-05 4.3226462e-06 4 -1 2993.1275 
13.785817 4.8363568 9.7899969 16.878808 0.28857253 -0.10353439 0.5 43.9723 427.78508 26.61664 0.1268175 0.93016407 0.39405164 1 10 1 -2.7198857e-06 -8.3964123e-06 -1.0993274e-05 0 -1 2937.1179 
9.4043914 4.7115957 11.012818 17.714045 0.070173888 0.043806797 0.5 99.102562 1602.3138 -24.281824 -1.3187454 0.13158361 0.60779339 1 10 1 2.6264671e-06 2.0867052e-05 -1.0491014e-05 52 -1 2977.1958 
16.71981 0.34247493 2.5370075 13.891843 -0.87458008 -0.37575105 0.5 38.239513 4830.1584 8.6620391 0.083625649 0.69360542 -0.22187649 1 10 1 0.00013533621 6.6819228e-05 -3.7409027e-05 37 -1 2982.4547 
12.812892 1.7232564 6.2732159 15.958242 -0.12717029 0.22792688 0.5 -61.197505 4170.1193 9.6913889 0.30243734 -1.3137103 -0.0099228896 1 10 1 -2.7838303e-05 1.7394002e-05 2.8657719e-05 46 -1 2992.4013 
17.162859 8.7704862 5.207346 16.360368 0.75411827 -0.37371999 0.5 -89.037867 2231.7338 21.325312 1.9025809 -0.43989931 0.14527778 1 10 1 -4.9575336e-05 5.0460532e-05 2.3480857e-06 6 -1 2986.9876 
12.987136 6.8646678 9.371786 16.485713 0.43433474 0.088230746 0.5 -19.614703 1125.2629 30.152098 -0.13416258 0.41661802 0.75777042 1 10 1 4.6478537e-06 -3.612858e-06 1.6046489e-05 38 -1 2999.8029 
11.655126 5.921709 8.4055569 16.46121 -0.044853945 0.12569102 0.5 -55.87494 452.21941 -23.831367 0.34158891 -0.50353371 0.37543711 1 10 1 7.3347147e-06 4.6287319e-06 1.2089176e-05 48 -1 2987.557 
10.207831 6.0496672 9.2177846 16.694351 -0.042998792 -0.14596142 0.5 9.4744422 1199.5761 -17.936373 0.25578858 -0.21780958 -0.47436716 1 10 1 1.9187501e-05 -3.4483772e-06 1.5672039e-05 38 -1 2977.1282 
6.7217588 5.115773 1.7470701 12.460339 0.34217892 -0.1851138 0.5 -32.266603 2620.6529 -23.567163 0.42997301 -3.4215852 -1.6872096 1 10 1 -0.0001544462 -0.00010761104 -0.00011241197 9 -1 2999.8009 
18.1223 7.435232 1.4341488 11.449583 -0.281688 1.1297898 0.5 -152.17564 5109.1236 -2.6800895 -0.92890358 -0.283535 -5.0865252 1 10 1 3.4611356e-05 -2.0881736e-05 0 -1 0 2999.2687 
12.278018 1.7041128 8.1878671 16.309364 0.10631394 -0.14017679 0.5 -36.495543 987.64381 45.73616 0.98532007 0.11146226 0.16190382 1 10 1 7.1009006e-07 -1.2028801e-05 2.4812576e-05 49 -1 2957.1392 
0.51419456 6.7420917 8.8666724 16.197467 -0.19767717 0.10619618 0.5 -21.715262 2656.6781 94.580842 0.047377647 -0.073158569 -0.19950264 1 10 1 -4.0025289e-05 2.1002323e-07 4.8504929e-06 50 -1 2994.0185 
19.555949 8.4620352 3.44578 15.405245 0.4555469 -0.630151 0.5 51.077075 3027.8381 -39.458227 -0.20881981 0.30234815 -0.033473315 1 10 1 -0.00010188191 -0.00013013806 0.00011066896 25 -1 2983.0459 
9.8101127 8.4201622 5.4843262 15.754386 0.25310799 1.22393 0.5 -45.099392 2104.5029 -36.277329 1.0495919 1.44231 0.8564096 1 10 1 -9.5933665e-06 -1.5392597e-08 2.503026e-05 32 -1 2964.3144 
8.9248964 1.8600035 6.2024347 15.689672 0.27905571 0.48859576 0.5 -107.43007 1078.4444 -45.492857 -1.6847754 -0.95513061 -0.0064591354 1 10 1 3.7428785e-05 -1.1397112e-05 -2.4412623e-05 34 -1 2997.4076 
7.6960922 2.5331359 2.3753494 13.07877 0.3215263 -0.31894497 0.5 -12.178987 1889.5455 -88.061491 -1.5468377 3.4516824 0.87615313 1 10 1 0.00025944483 9.8150822e-05 0 -1 0 2986.9827 
8.4858104 2.7948582 5.4266933 15.541064 -0.013874585 -0.14715964 0.5 -40.422937 1921.8246 -14.680187 0.9318314 0.73295538 0.058710634 1 10 1 5.3856592e-05 9.4910368e-06 -1.1722885e-05 66 -1 2998.3528 
4.5332707 9.9455671 2.618008 14.346983 0.14621462 -0.0062304214 0.5 -57.293371 1957.3428 -114.21401 0.50250165 -0.0021351694 -0.55586549 1 10 1 0.00017734362 -4.0765531e-05 -8.7475308e-05 64 -1 2984.1265 
19.082904 9.1770497 2.6082102 15.748327 0.47061816 -0.3708333 0.5 -22.935368 2972.3082 -4.617885 2.9039062 2.4158682 0.78885422 1 10 1 2.0001905e-06 -2.3981708e-05 -1.3748315e-05 64 -1 2997.834 
11.164332 7.6890739 9.3221505 16.85857 0.38998281 0.23661099 0.5 28.344816 728.90763 34.10324 -0.37319267 -0.68373978 1.1342651 1 10 1 1.054146e-05 1.0828231e-07 -1.4011695e-06 38 -1 2995.656 
5.1813919 7.6596343 9.4930108 16.824215 0.12652454 -0.14615401 0.5 -20.977613 1418.1866 -34.224038 -0.042230586 0.42514792 -0.42402616 1 10 1 9.6671134e-06 -1.0554155e-05 -5.9220031e-06 57 -1 2934.0249 
4.6859491 1.4673392 10.31358 16.825379 0.1073215 -0.22661343 0.5 -17.77811 975.7573 8.3011714 -0.31892017 -0.01543315 -0.014930781 1 10 1 9.6547856e-06 1.9362814e-05 -6.3320175e-06 7 -1 2987.7838 
19.427899 7.651843 5.3041211 16.149222 -0.036390875 0.04021116 0.5 9.3415678 1581.2815 -108.07661 -0.30957476 -0.63945594 -1.1547913 1 10 1 -5.9236179e-05 -0.00010206716 8.1191951e-05 20 -1 2944.8758 
2.3404966 2.0165648 5.446456 15.719308 -0.85018521 -0.078805201 0.5 28.394739 3180.4621 59.521605 0.71413909 0.016369701 -1.1927455 1 10 1 3.0451287e-05 1.6673011e-05 6.4114402e-06 49 -1 2989.8581 
2.7491548 8.7162828 2.6531909 14.596214 0.074595315 0.50402987 0.5 27.038919 3720.3435 61.074989 -2.1008175 1.3205254 -0.92684097 1 10 1 3.6046821e-05 4.0737604e-06 2.8431505e-05 5 -1 2994.5493 
7.7905798 2.3057192 3.7757975 15.047984 0.34663193 -0.44160054 0.5 -37.773234 2178.9908 -59.514111 0.26319368 1.9095821 -0.90806201 1 10 1 4.9526235e-05 9.238268e-05 4.5050426e-05 67 -1 2999.5166 
4.5151817 2.0636855 5.4233665 15.990482 0.32309866 -0.32065612 0.5 -22.624447 1593.4535 -19.220073 0.80991341 -0.01013269 -0.91428282 1 10 1 2.4463814e-05 2.1721604e-05 -2.0155596e-05 37 -1 2994.9829 
1.1166754 9.4568377 1.5371263 14.929191 0.74895111 0.63828076 0.5 -63.353865 3619.3439 -65.286134 -1.2849001 -2.2825198 1.0634136 1 10 1 -0.00016563096 3.8183652e-05 8.0258162e-05 76 -1 2997.7132 
12.804114 8.4221808 8.349131 16.460161 0.32103429 0.072310792 0.5 7.8040626 804.06748 0.781983 -0.62584662 0.53490913 -0.42581814 1 10 1 5.6940443e-05 2.1693403e-05 6.449689e-06 45 -1 2984.8418 
0.92043059 0.66518349 9.3736884 16.727105 -0.0073224311 -0.12363171 0.5 100.71718 3626.3408 -136.61118 0.68962918 -0.42698441 -0.32263214 1 10 1 -3.7005836e-05 2.5320966e-05 2.1067433e-06 45 -1 2938.1225 
16.170225 1.9753474 8.4380267 16.444204 -0.086710284 -0.48374432 0.5 84.483543 3812.1026 38.756065 1.182518 0.11639573 0.056921566 1 10 1 -1.4976474e-05 3.1555022e-05 -3.3160413e-06 66 -1 2951.4989 
6.8853482 3.0492736 9.3771801 16.886363 -0.022442264 -0.17251626 0.5 -80.151185 3391.3838 -18.625425 -0.22364973 -0.40286966 0.94070475 1 10 1 -7.4298069e-07 -2.1759095e-05 1.5847537e-05 53 -1 2996.3485 
13.700546 9.5552025 7.4532765 16.643866 -0.092284287 -0.28143477 0.5 72.746974 2578.3121 -17.816062 -0.91994808 -0.57975406 0.31912053 1 10 1 -2.9295769e-06 1.5469305e-05 1.3486192e-05 83 -1 2927.7167 
4.609571 6.955458 2.7169573 13.948022 -0.090330975 0.30161256 0.5 -51.622952 1977.3868 -100.34911 -1.3121193 -0.73255425 -2.4248574 1 10 1 1.864852e-05 4.4270248e-05 -5.0387045e-05 5 -1 2999.6064 
13.767451 0.78079463 4.7202445 14.375425 -0.036543539 0.91555082 0.5 19.830936 5676.0611 -28.678505 -0.71963731 -0.2476501 -0.30622153 1 10 1 -0.00011961105 -4.7219729e-06 -2.6503594e-05 6 -1 2991.7097 
13.627023 1.5570225 3.6446049 14.447571 -0.12768014 -0.60964827 0.5 101.76247 4019.8778 -64.030134 1.255661 0.21905241 1.8071332 1 10 1 -0.00016631029 9.941268e-05 7.5614867e-05 54 -1 2990.1625 
14.018759 4.7993017 4.1120324 15.413495 -0.21581598 0.23231111 0.5 -33.01517 441.83747 -21.667065 1.1224992 -0.82031492 -0.56494607 1 10 1 4.0346143e-05 -4.8797663e-05 9.1801712e-06 12 -1 2999.8852 
1.2908875 0.2936205 8.4899366 16.561927 0.30226508 0.18709801 0.5 132.64035 1782.2436 -8.2725312 0.8114517 0.62023211 -0.25777323 1 10 1 2.5278748e-05 -1.4551124e-05 5.3000238e-06 18 -1 2999.9539 
10.928754 3.9249544 5.7622343 15.923516 -0.18140361 0.68093071 0.5 78.286442 4792.5675 -85.942655 -0.39715332 0.7162917 -0.66268836 1 10 1 -1.6388358e-05 -1.0368875e-05 3.6714668e-05 30 -1 2983.4588 
3.9382018 1.7373476 6.9274734 16.581628 -0.056590387 0.24711895 0.5 -54.0108 3262.9071 117.4894 -0.38885968 0.083334816 0.46980716 1 10 1 5.8165224e-05 9.4670935e-06 -1.4832368e-05 29 -1 2997.379 
14.272054 3.7517286 5.0563007 15.038762 0.97492142 0.78268721 0.5 -7.1871692 581.566 -23.445936 1.6912201 -1.5770357 -1.489668 1 10 1 2.1634336e-05 -3.9205431e-05 -7.993603e-05 30 -1 2987.2395 
6.6179684 1.5362308 9.6297545 16.725478 -0.15854174 -0.037756971 0.5 -20.653163 1046.1607 2.9372674 0.6759271 0.16247077 0.83409338 1 10 1 -0.00011251289 2.0078609e-05 9.1503243e-05 83 -1 2980.8503 
14.674271 0.071698506 6.6480094 16.353734 0.046468424 0.030437712 0.5 -17.161949 415.89265 -26.050926 0.3888536 0.70842449 -0.80438465 1 10 1 3.8122322e-05 -5.1766461e-06 6.2892042e-05 42 -1 2979.7456 
7.4658902 9.3942108 9.3983712 16.830998 -0.002388847 -0.077972008 0.5 -3.3926833 2014.6378 -92.091999 -0.29683516 -0.041861184 -0.56170183 1 10 1 7.4654642e-06 8.1784239e-06 -7.4570358e-06 18 -1 2974.0968 
9.9539298 6.0093227 10.932809 17.611136 0.017495603 -0.25501294 0.5 -52.249781 2406.714 -31.824684 0.091021166 0.020353588 -0.62419076 1 10 1 -1.7107127e-05 -2.6815899e-06 4.5516781e-06 36 -1 2852.2062 
15.29858 0.42152205 5.2134351 15.830972 -0.15519117 -0.16013579 0.5 -21.206395 353.29105 -8.7798825 0.23541549 -2.0773964 -0.18116054 1 10 1 -1.4351668e-08 -2.1053982e-05 -1.6950561e-05 86 -1 2997.7098 
5.7089642 8.194254 3.0033882 15.132972 -0.71637523 -0.29437215 0.5 68.710804 411.30727 -36.565436 0.76889989 1.9627726 -0.15275784 1 10 1 -0.00045113377 -0.0004139771 -0.0010192942 5 -1 3000 
2.8076479 9.2611764 8.703482 16.070981 0.31960827 0.48667863 0.5 100.50361 784.12759 -23.776363 0.058898491 0.19585897 1.2220361 1 10 1 -7.8318798e-06 -1.8613014e-05 3.6214029e-05 13 -1 2999.3364 
8.121715 7.5298935 9.2668779 16.877772 -0.087699435 0.28879861 0.5 -19.567043 1964.5114 -59.785845 -0.67113995 0.79705937 1.3513404 1 10 1 -5.8918241e-06 1.9684574e-05 1.0556815e-05 59 -1 2988.9734 
4.2342771 9.4148146 3.442333 15.316054 -0.026663991 0.25545447 0.5 23.786829 2792.74 -62.3673 0.27412769 -0.1329593 1.5973186 1 10 1 -7.324616e-05 0.000119219 2.6226499e-05 69 -1 2999.8429 
16.407848 0.30458341 9.2119716 16.807796 0.0010764152 -0.16339975 0.5 -61.81949 2392.1389 -7.7535407 0.42462131 0.069826646 -0.23236869 1 10 1 -9.6446179e-06 1.2703657e-05 4.9118157e-06 84 -1 2986.7796 
16.776017 7.252663 7.4510526 16.422763 -0.37620832 0.49562367 0.5 -4.5590575 1111.0411 -32.387453 0.20481231 0.176216 0.048788564 1 10 1 1.0871238e-05 5.4093376e-06 -3.4003165e-05 50 -1 2986.0614 
12.243801 4.8341866 6.1761686 15.36707 -0.10695103 0.27837083 0.5 -41.280732 1728.9149 87.767158 0.085281033 1.6000499 0.35603338 1 10 1 -5.7196223e-06 5.1232896e-06 1.2502934e-05 31 -1 2999.5526 
3.7808098 2.374641 8.4540676 16.811657 0.17649283 -0.20832649 0.5 99.840601 2252.7765 56.332725 -0.26659898 0.15514048 0.10484116 1 10 1 -1.3116027e-05 -7.5564518e-07 -1.7100443e-05 29 -1 2999.8127 
1.5798814 0.80959598 3.1375608 14.883981 0.19528129 -7.5056571e-05 0.5 -9.1545957 2728.13 -88.700895 0.17586048 1.3025356 -0.98923552 1 10 1 -1.2965609e-05 2.3888085e-05 1.5167941e-05 101 -1 2994.9553 
4.9401135 5.3314269 6.562854 16.14602 0.21122835 -0.207732 0.5 -10.708515 1046.4406 37.148698 0.36322326 -0.72730912 0.50906482 1 10 1 2.3204046e-06 1.6694177e-05 1.1934673e-05 24 -1 2995.2438 
17.65862 2.0508903 7.3227854 16.467138 0.0033058384 -0.017798538 0.5 -11.312722 1163.1147 -9.6093146 0.14119104 -0.17443334 -0.20250936 1 10 1 2.5314881e-05 4.4471759e-06 -1.5176599e-05 105 -1 2978.8518 
12.109746 9.7858711 8.0664147 16.572355 0.04437798 -0.33749237 0.5 -28.56194 2727.1109 -113.08776 -0.71185754 -0.05004857 -0.60997556 1 10 1 2.4042611e-06 -2.5945651e-06 -1.9414725e-06 84 -1 2989.2009 
9.5927968 3.7083762 1.4255197 11.431601 0.052171339 -0.87931306 0.5 15.642017 1611.3495 -66.316513 1.4495338 -3.3341224 0.9001845 1 10 1 -2.0989507e-05 2.462184e-06 7.3402602e-05 1 -1 2999.849 
14.784791 4.0338253 7.5837887 16.566225 -0.016530027 0.29161495 0.5 28.816237 1583.2613 -14.303944 0.54764366 0.41902688 0.064873721 1 10 1 6.1024111e-06 -3.2267999e-07 -5.4970476e-06 31 -1 2994.8082 
9.1484839 1.0153432 8.7533294 16.717095 0.029317017 -0.0095574556 0.5 -10.561796 1746.0683 -84.130548 -0.0855781 0.80635216 0.45385079 1 10 1 3.7080653e-05 1.4919255e-05 -3.5299474e-05 75 -1 2982.7481 
1.0302158 3.5884898 1.6652834 14.974007 -0.7534106 -0.50402447 0.5 22.487177 4230.7073 -83.023378 1.6642832 -2.4450984 -1.076098 1 10 1 0.00060909789 0.00055410471 0.00011204558 28 -1 2999.8235 
9.1812231 9.4577501 3.6718959 15.481211 0.56698328 -0.40556515 0.5 24.202654 2834.7994 28.996905 -0.0055208213 1.2262594 -1.3114114 1 10 1 1.7703084e-05 -6.6820584e-06 4.046436e-06 85 -1 2991.1962 
12.693653 8.7496739 2.0849324 13.528304 0.26687216 -0.28506702 0.5 -4.0467119 2829.4232 -10.027539 -1.4504823 1.8113868 2.3556513 1 10 1 6.3836862e-07 -0.00039593562 1.6602252e-05 40 -1 2999.9292 
18.651117 3.9602548 8.8810239 16.617526 -0.1784603 -0.18567317 0.5 39.832865 2072.121 -71.924574 -0.15758321 0.11488174 -0.048493604 1 10 1 -1.3852092e-05 -1.2924316e-05 -2.6079961e-05 27 -1 2999.953 
10.582797 0.91309532 9.4992082 16.917968 0.24415169 -0.36961525 0.5 -61.211705 1233.9589 -67.423725 -0.73339566 -0.22865539 -0.1211598 1 10 1 -2.1419149e-06 5.1072544e-07 1.8803655e-06 112 -1 2997.0909 
6.842334 1.1881728 6.8557372 16.214292 -0.099044749 -0.059288388 0.5 -4.9012066 618.59308 -47.232949 -0.1662608 -0.57085906 0.69822144 1 10 1 3.1936047e-05 2.1326157e-05 -5.7516475e-05 34 -1 2981.2338 
17.395963 3.4995187 8.2620762 16.825175 0.002328359 0.064494663 0.5 5.2610632 2124.4402 79.855526 -0.39194562 -0.28643178 -0.57801242 1 10 1 1.2542441e-05 -8.1051568e-06 -8.4244538e-07 116 -1 2995.009 
7.5943442 4.008358 7.0260556 15.924763 -0.26826503 0.16051929 0.5 15.630272 432.14707 8.1977748 0.95954231 -0.31860221 -0.33848593 1 10 1 1.0500501e-05 1.4824637e-05 4.4907838e-05 24 -1 2983.56 
9.9526608 3.2347661 5.437073 15.895656 0.07251875 -0.052961103 0.5 -2.0242511 2714.0609 140.53229 -0.27825842 -0.57313781 -0.87096026 1 10 1 -2.9131201e-05 4.2758284e-05 1.8645919e-05 34 -1 2999.2855 
13.319164 1.0616224 8.2608532 16.505625 0.21416259 -0.20002259 0.5 -41.710455 2449.2544 57.34573 -0.013471524 -0.51810787 -0.72081505 1 10 1 2.5875353e-06 2.1130705e-05 6.1297695e-06 62 -1 2998.5418 
18.80791 0.15554286 2.3817028 14.17642 -0.62590755 -0.37797139 0.5 -93.466355 2157.0422 19.780087 1.8077295 0.46608831 1.2007466 1 10 1 -2.4417239e-05 3.3539452e-05 0.00012411651 70 -1 2999.6915 
11.651783 2.9399208 6.1878981 15.793753 0.060594667 -0.34086522 0.5 -50.517328 1124.8227 -50.44596 -0.44063017 -0.61902952 0.16317734 1 10 1 -1.9770961e-05 4.696191e-05 1.5086956e-06 41 -1 2999.4569 
9.7410554 5.1099423 6.1374667 16.453765 0.14900196 -0.15339236 0.5 -32.718614 3837.3465 59.296922 0.076361621 0.59759062 -0.081267623 1 10 1 3.0494132e-05 1.8706556e-05 -3.3609901e-05 4 -1 2991.5239 
18.128741 4.2678167 3.8886963 14.960504 0.37685727 0.61270946 0.5 27.300632 1110.9724 -38.817511 -1.3940202 0.67927304 0.74362897 1 10 1 7.5438053e-05 -5.4470829e-06 -6.2363843e-06 88 -1 2984.6693 
4.4307124 4.4741896 2.4236465 13.269551 1.147099 1.8235753 0.5 -31.213653 2153.7973 7.613533 1.370137 -0.46752879 -2.3530748 1 10 1 -1.4236619e-06 -1.4869197e-06 -2.4596642e-06 78 -1 2979.9426 
12.030459 0.74676601 8.3514294 16.695194 0.22225009 -0.2370604 0.5 -29.280062 1908.0566 -86.1333 0.53198371 0.91724626 0.47438986 1 10 1 3.7984345e-06 2.3877502e-06 -6.955326e-06 109 -1 2999.9703 
11.542119 1.3681444 2.7096422 14.525955 0.12540123 -0.27245887 0.5 25.241831 1323.5345 -30.478619 -1.4237831 -0.19770555 2.0875866 1 10 1 -2.4404955e-05 -2.8143091e-06 2.8699931e-05 87 -1 2997.7738 
16.144117 0.67519591 1.632783 13.283163 -0.71902234 -0.18260052 0.5 -18.278641 973.27552 24.220516 -1.2527645 -0.99685309 0.10567311 1 10 1 0.00021571588 7.0311025e-05 3.3287169e-05 54 -1 2999.0203 
1.3138222 3.9788616 7.4156405 16.365788 0.033797218 0.051903649 0.5 -58.707457 1747.078 2.3525157 0.39660713 1.1747134 0.26332699 1 10 1 1.5855979e-06 8.8920813e-06 2.3006833e-06 121 -1 2979.3223 
4.4280032 3.418286 0.53445267 7.4983554 -1.376354 1.4861876 0.5 38.537412 2731.6946 -57.894536 1.2623003 6.6187667 -4.9754772 1 10 1 0.00010848803 -1.9339996e-05 0 -1 0 2999.9769 
11.401219 4.7511647 3.1552436 15.200302 -0.42570059 0.14138259 0.5 83.85391 1916.3305 40.802651 -3.501362 1.2871644 2.6159884 1 10 1 -0.00024654094 -0.00010429598 -0.00021698407 110 -1 2996.7902 
0.14233955 6.2469641 10.614827 17.078201 0.030639741 0.030515773 0.5 19.742854 402.4706 -16.989769 -0.36906057 -0.26888326 0.38827162 1 10 1 -6.3903638e-05 9.3915141e-05 3.7731811e-05 71 -1 2976.3811 
4.2131752 2.1912439 9.59029 16.961232 -0.029722438 -0.29317964 0.5 -42.18073 1197.6572 35.869234 -0.10650442 0.21853575 0.27845459 1 10 1 2.5766559e-05 2.3481226e-05 1.6053312e-06 105 -1 2998.6318 
3.6769191 2.5611772 7.4337889 16.420282 0.30690426 0.41111186 0.5 6.819363 727.21235 3.4862272 -0.67585061 -0.26843313 -0.42341661 1 10 1 8.5424204e-07 -1.41201e-05 2.3404432e-05 91 -1 2999.996 
15.61616 9.7771414 7.4020345 16.411333 0.34499575 0.38256396 0.5 -47.463817 3446.3626 -43.401364 0.14117677 0.60401999 -0.013077397 1 10 1 4.7368978e-06 -1.6074476e-05 -3.9701841e-06 94 -1 2997.1928 
7.8824157 6.9496731 2.8819407 13.715278 -0.14749156 -0.621318 0.5 -61.546837 1290.3265 22.814391 0.90367322 0.62483779 -0.70509876 1 10 1 6.128449e-05 4.14562e-05 -4.3109991e-05 85 -1 2994.6893 
11.20833 0.016289733 9.8566214 17.148552 0.02863486 0.042321021 0.5 3.140201 809.31399 -49.957346 0.64014905 -0.53619291 0.18309383 1 10 1 -3.8104108e-06 5.8113126e-06 3.4671077e-05 117 -1 2998.1374 
13.908367 8.0983624 8.1270037 16.593577 0.15193067 0.083364596 0.5 -100.25292 1630.6709 -72.739536 -0.40540261 -0.16440642 -0.40841824 1 10 1 1.219565e-05 5.0902165e-05 -1.9414064e-05 80 -1 2999.0635 
18.346967 9.3631045 10.416633 16.537755 -0.2672812 0.17794659 0.5 -63.404209 1615.9201 19.536575 0.34075292 -0.31386564 0.0053736073 1 10 1 -9.6160187e-06 -1.473705e-06 1.3086346e-05 102 -1 2986.4261 
8.6061234 9.3304877 1.4587222 12.645791 0.071185438 1.0739819 0.5 20.117108 555.01227 68.317678 3.9781154 -2.8730696 0.94962642 1 10 1 0.00034329544 0.00021400619 0.00051242442 79 -1 2995.0074 
14.802268 5.3993251 8.7410712 16.609463 -0.13613059 -0.038999358 0.5 -21.945487 1113.4553 -23.264515 -0.59969318 0.07275722 -0.16809336 1 10 1 3.264682e-06 -7.2898669e-06 -9.5797763e-06 58 -1 2990.7377 
14.023264 1.8394556 8.8295979 16.459242 0.22692044 0.24191211 0.5 -20.907383 3191.3635 76.272141 -0.72862341 0.10446474 1.2142089 1 10 1 3.0774114e-05 -7.0143775e-06 -1.5218522e-05 122 -1 2997.4208 
0.26450903 9.5679036 4.745079 16.270566 -0.12772658 -0.55615152 0.5 -14.281203 2313.6178 -34.354075 -0.49330457 -0.86471854 -0.73280057 1 10 1 3.9335561e-06 -2.9551264e-06 8.6301371e-07 6 -1 2974.422 
2.7511941 6.9295606 6.2204401 16.405518 -0.13248184 -0.19550575 0.5 15.589518 1396.1096 -7.6592519 0.93680629 0.65489895 0.77930318 1 10 1 -1.7536877e-05 -6.9395393e-06 9.9989043e-06 74 -1 2991.9806 
4.8335081 9.3591111 1.6684774 12.632427 0.45614333 -0.054213917 0.5 -25.619751 963.31593 4.190491 1.394157 0.55112654 1.2489055 1 10 1 -0.00024721964 -0.00031449561 -0.00013457067 69 -1 2998.5783 
0.46879006 1.3960211 8.8241881 16.768483 0.10017492 0.0094845843 0.5 -30.531168 377.03904 46.956931 0.04749972 -0.042395317 0.90534176 1 10 1 -2.1931675e-06 -1.5687876e-05 -1.7477342e-05 81 -1 2999.8164 