MercuryDPM 0.14 name GCGMixtureSelfTest revision 3412 repository https://svn.mercurydpm.org/SourceCode/MercuryLab
dataFile    fileType ONE_FILE saveCount 437 counter 3 lastSavedTimeStep 438
fStatFile   fileType ONE_FILE saveCount 437 counter 3 lastSavedTimeStep 438
eneFile     fileType ONE_FILE saveCount 437 counter 3 lastSavedTimeStep 438
restartFile fileType ONE_FILE saveCount 437 counter 3 lastSavedTimeStep 438
statFile    fileType ONE_FILE saveCount 437 counter 0
interactionFile fileType NO_FILE saveCount 0 counter 0
xMin 0 xMax 0.63 yMin -0.07 yMax 0.07 zMin -0.205 zMax 0.435
timeStep 1.14272991960696e-05 time 0.00500515704787845 ntimeSteps 438 timeMax 0.005
systemDimensions 3 particleDimensions 3 gravity 0 0 -9.8 writeVTK 1 MULTIPLE_FILES NO_FILE 3 3 0 random  0 1103515245 12345 1073741824 607 273 784607267 xBallsArguments -v0 -solidf -cmode 8 -s 4.7 -oh 0 -o 175 -h 1000 -w 1500
Species 4
LinearPlasticViscoelasticFrictionSpecies id 0 density 1473.7 loadingStiffness 49903871.0019263 maxUnloadingStiffness 249519355.009632 cohesionStiffness 61307579.228125 maxPenetration 0.000125 dissipation 347.656662995142 slidingStiffness 14258248.8576932 slidingDissipation 99.3304751414692 slidingFrictionCoefficient 0.4787953 slidingFrictionCoefficientStatic 0.4787953 rollingStiffness 9980774.20038526 rollingDissipation 69.5313325990284 rollingFrictionCoefficient 0.3424929 rollingFrictionCoefficientStatic 0.3424929 torsionStiffness 9980774.20038526 torsionDissipation 69.5313325990284 torsionFrictionCoefficient 0 torsionFrictionCoefficientStatic 0
LinearPlasticViscoelasticFrictionSpecies id 1 density 1199.8 loadingStiffness 61296328.3009992 maxUnloadingStiffness 306481641.504996 cohesionStiffness 61296328.3009992 maxPenetration 0.000125 dissipation 1289.60472362769 slidingStiffness 17513236.6574283 slidingDissipation 368.458492465054 slidingFrictionCoefficient 0.7735157 slidingFrictionCoefficientStatic 0.7735157 rollingStiffness 12259265.6601998 rollingDissipation 257.920944725538 rollingFrictionCoefficient 0.4569588 rollingFrictionCoefficientStatic 0.4569588 torsionStiffness 12259265.6601998 torsionDissipation 257.920944725538 torsionFrictionCoefficient 0 torsionFrictionCoefficientStatic 0
LinearPlasticViscoelasticFrictionMixedSpecies idA 1 idB 0 loadingStiffness 55016521.1861147 maxUnloadingStiffness 275082605.930573 cohesionStiffness 61301953.2483332 maxPenetration 0.000125 dissipation 547.670247966896 slidingStiffness 17513236.6574283 slidingDissipation 368.458492465054 slidingFrictionCoefficient 0.7735157 slidingFrictionCoefficientStatic 0.7735157 rollingStiffness 11003304.2372229 rollingDissipation 109.534049593379 rollingFrictionCoefficient 0.391531207182423 rollingFrictionCoefficientStatic 0.391531207182423 torsionStiffness 11003304.2372229 torsionDissipation 109.534049593379 torsionFrictionCoefficient 0 torsionFrictionCoefficientStatic 0
LinearPlasticViscoelasticFrictionSpecies id 2 density 1473.7 loadingStiffness 49903871.0019263 maxUnloadingStiffness 249519355.009632 cohesionStiffness 61307579.228125 maxPenetration 0.000125 dissipation 347.656662995142 slidingStiffness 14258248.8576932 slidingDissipation 99.3304751414692 slidingFrictionCoefficient 0.4787953 slidingFrictionCoefficientStatic 0.4787953 rollingStiffness 9980774.20038526 rollingDissipation 69.5313325990284 rollingFrictionCoefficient 0.3424929 rollingFrictionCoefficientStatic 0.3424929 torsionStiffness 9980774.20038526 torsionDissipation 69.5313325990284 torsionFrictionCoefficient 0 torsionFrictionCoefficientStatic 0
LinearPlasticViscoelasticFrictionMixedSpecies idA 2 idB 0 loadingStiffness 49903871.0019263 maxUnloadingStiffness 249519355.009632 cohesionStiffness 37427903.2514447 maxPenetration 0.000125 dissipation 347.656662995142 slidingStiffness 14258248.8576932 slidingDissipation 99.3304751414692 slidingFrictionCoefficient 0.44 slidingFrictionCoefficientStatic 0.44 rollingStiffness 9980774.20038526 rollingDissipation 69.5313325990284 rollingFrictionCoefficient 0.11 rollingFrictionCoefficientStatic 0.11 torsionStiffness 9980774.20038526 torsionDissipation 69.5313325990284 torsionFrictionCoefficient 0 torsionFrictionCoefficientStatic 0
LinearPlasticViscoelasticFrictionMixedSpecies idA 2 idB 1 loadingStiffness 61296328.3009992 maxUnloadingStiffness 306481641.504996 cohesionStiffness 45972246.2257494 maxPenetration 0.000125 dissipation 1289.60472362769 slidingStiffness 14258248.8576932 slidingDissipation 99.3304751414692 slidingFrictionCoefficient 0.44 slidingFrictionCoefficientStatic 0.44 rollingStiffness 12259265.6601998 rollingDissipation 257.920944725538 rollingFrictionCoefficient 0.11 rollingFrictionCoefficientStatic 0.11 torsionStiffness 12259265.6601998 torsionDissipation 257.920944725538 torsionFrictionCoefficient 0 torsionFrictionCoefficientStatic 0
LinearPlasticViscoelasticFrictionSpecies id 3 density 1473.7 loadingStiffness 49903871.0019263 maxUnloadingStiffness 249519355.009632 cohesionStiffness 61307579.228125 maxPenetration 0.000125 dissipation 347.656662995142 slidingStiffness 14258248.8576932 slidingDissipation 99.3304751414692 slidingFrictionCoefficient 0.4787953 slidingFrictionCoefficientStatic 0.4787953 rollingStiffness 9980774.20038526 rollingDissipation 69.5313325990284 rollingFrictionCoefficient 0.3424929 rollingFrictionCoefficientStatic 0.3424929 torsionStiffness 9980774.20038526 torsionDissipation 69.5313325990284 torsionFrictionCoefficient 0 torsionFrictionCoefficientStatic 0
LinearPlasticViscoelasticFrictionMixedSpecies idA 3 idB 0 loadingStiffness 49903871.0019263 maxUnloadingStiffness 249519355.009632 cohesionStiffness 61307579.228125 maxPenetration 0.000125 dissipation 8.13536452051956 slidingStiffness 14258248.8576932 slidingDissipation 99.3304751414692 slidingFrictionCoefficient 0.4787953 slidingFrictionCoefficientStatic 0.4787953 rollingStiffness 9980774.20038526 rollingDissipation 69.5313325990284 rollingFrictionCoefficient 0.3424929 rollingFrictionCoefficientStatic 0.3424929 torsionStiffness 9980774.20038526 torsionDissipation 69.5313325990284 torsionFrictionCoefficient 0 torsionFrictionCoefficientStatic 0
LinearPlasticViscoelasticFrictionMixedSpecies idA 3 idB 1 loadingStiffness 61296328.3009992 maxUnloadingStiffness 306481641.504996 cohesionStiffness 61296328.3009992 maxPenetration 0.000125 dissipation 3.00580510526982 slidingStiffness 14258248.8576932 slidingDissipation 99.3304751414692 slidingFrictionCoefficient 0.4787953 slidingFrictionCoefficientStatic 0.4787953 rollingStiffness 12259265.6601998 rollingDissipation 257.920944725538 rollingFrictionCoefficient 0.4569588 rollingFrictionCoefficientStatic 0.4569588 torsionStiffness 12259265.6601998 torsionDissipation 257.920944725538 torsionFrictionCoefficient 0 torsionFrictionCoefficientStatic 0
LinearPlasticViscoelasticFrictionMixedSpecies idA 3 idB 2 loadingStiffness 49903871.0019263 maxUnloadingStiffness 249519355.009632 cohesionStiffness 61307579.228125 maxPenetration 0.000125 dissipation 347.656662995142 slidingStiffness 14258248.8576932 slidingDissipation 99.3304751414692 slidingFrictionCoefficient 0.4787953 slidingFrictionCoefficientStatic 0.4787953 rollingStiffness 9980774.20038526 rollingDissipation 69.5313325990284 rollingFrictionCoefficient 0.3424929 rollingFrictionCoefficientStatic 0.3424929 torsionStiffness 9980774.20038526 torsionDissipation 69.5313325990284 torsionFrictionCoefficient 0 torsionFrictionCoefficientStatic 0
Walls 54
IntersectionOfWalls id 0 indSpecies 2 position 0 0 0 orientation 1 0 0 0 velocity 0 0 0 angularVelocity 0 0 0 force 0 0 0 torque 0 0 0 renderedWalls 1 AxisymmetricIntersectionOfWalls id 0 indSpecies 2 position 0 0 0 orientation 1 0 -0 0 velocity 0 0 0 angularVelocity 0 0 0 force 0 0 0 torque 0 0 0 numIntersectionOfWalls 2 position 0 0 0.63 orientation 0.707106781186547 0 -0.707106781186547 0 position 0.07 0 0 orientation 0 0 1 0 numIntersectionOfWalls 2 position 0.63 0 0 orientation 1 0 -0 0 position 0 0 -0.07 orientation 0.707106781186547 0 -0.707106781186547 0
InfiniteWall id 1 indSpecies 2 position 0 0 0 orientation 0 0 1 0 velocity 0 0 0 angularVelocity 0 0 0 force 0 0 0 torque 0 0 0 renderedWalls 1 AxisymmetricIntersectionOfWalls id 0 indSpecies 2 position 0 0 0 orientation 1 0 -0 0 velocity 0 0 0 angularVelocity 0 0 0 force 0 0 0 torque 0 0 0 numIntersectionOfWalls 2 position 0 0 0 orientation 0.707106781186547 0 0.707106781186547 0 position 0.07 0 0 orientation 0 0 1 0
InfiniteWall id 2 indSpecies 2 position 0 0 0.435 orientation 0.707106781186548 0 -0.707106781186548 0 velocity 0 0 0 angularVelocity 0 0 0 force 0 0 0 torque 0 0 0
TriangleWall id 3 indSpecies 2 position 0.162449066115519 0.00624289030451611 0.251666666666667 orientation 1 0 0 0 velocity 0 0 0 angularVelocity 0 0 0 force 0 0 0 torque 0 0 0 vtkVisibility 0 vertexInLabFrame  -0.0338531604015955 0.0024288745091008 -0.0916666666666667 -0.0338531604015955 -0.014914655118133 -0.0916666666666667 0.067706320803191 0.0124857806090322 0.183333333333333
TriangleWall id 4 indSpecies 2 position 0.196302226517115 -0.00289058827120563 0.343333333333333 orientation 1 0 0 0 velocity 0 0 0 angularVelocity 0 0 0 force 0 0 0 torque 0 0 0 vtkVisibility 0 vertexInLabFrame  -0.067706320803191 -0.00578117654241127 -0.183333333333333 0.0338531604015955 0.021619259184754 0.0916666666666666 0.0338531604015955 -0.0158380826423427 0.0916666666666666
TriangleWall id 5 indSpecies 2 position 0.160236705633161 -0.0173651775282955 0.251666666666667 orientation 1 0 0 0 velocity 0 0 0 angularVelocity 0 0 0 force 0 0 0 torque 0 0 0 vtkVisibility 0 vertexInLabFrame  -0.031640799919237 0.00869341271467861 -0.0916666666666667 -0.0382778813663125 -0.00732991932942581 -0.0916666666666667 0.0699186812855495 -0.00136349338525281 0.183333333333333
TriangleWall id 6 indSpecies 2 position 0.189311764655534 -0.0322528367137171 0.343333333333333 orientation 1 0 0 0 velocity 0 0 0 angularVelocity 0 0 0 force 0 0 0 torque 0 0 0 vtkVisibility 0 vertexInLabFrame  -0.0673529403886861 0.00755773985599583 -0.183333333333333 0.0408436222631759 0.0135241658001688 0.0916666666666666 0.0265093181255101 -0.0210819056561647 0.0916666666666666
TriangleWall id 7 indSpecies 2 position 0.149158334635205 -0.0383295544981504 0.251666666666667 orientation 1 0 0 0 velocity 0 0 0 angularVelocity 0 0 0 force 0 0 0 torque 0 0 0 vtkVisibility 0 vertexInLabFrame  -0.0271995103683565 0.0136344576404291 -0.0916666666666667 -0.0394632377774833 0.00137073023130229 -0.0916666666666667 0.0666627481458398 -0.0150051878717314 0.183333333333333
TriangleWall id 8 indSpecies 2 position 0.171616974002882 -0.0567048831392581 0.343333333333333 orientation 1 0 0 0 velocity 0 0 0 angularVelocity 0 0 0 force 0 0 0 torque 0 0 0 vtkVisibility 0 vertexInLabFrame  -0.0619218771451611 0.01974605887241 -0.183333333333333 0.0442041087781619 0.00337014076937628 0.0916666666666666 0.0177177683669993 -0.0231161996417863 0.0916666666666666
TriangleWall id 9 indSpecies 2 position 0.130900534680407 -0.0534586042539387 0.251666666666667 orientation 1 0 0 0 velocity 0 0 0 angularVelocity 0 0 0 force 0 0 0 torque 0 0 0 vtkVisibility 0 vertexInLabFrame  -0.0212054378226854 0.0164997799870906 -0.0916666666666667 -0.0372287698667898 0.0098626985400151 -0.0916666666666667 0.0584342076894751 -0.0263624785271057 0.183333333333333
TriangleWall id 10 indSpecies 2 position 0.145911726032349 -0.0725241251378927 0.343333333333333 orientation 1 0 0 0 velocity 0 0 0 angularVelocity 0 0 0 force 0 0 0 torque 0 0 0 vtkVisibility 0 vertexInLabFrame  -0.0522399612187321 0.0289282194239691 -0.183333333333333 0.0434230163375328 -0.00729695764315165 0.0916666666666666 0.0088169448811993 -0.0216312617808174 0.0916666666666666
TriangleWall id 11 indSpecies 2 position 0.108242890304516 -0.0604490661155191 0.251666666666667 orientation 1 0 0 0 velocity 0 0 0 angularVelocity 0 0 0 force 0 0 0 torque 0 0 0 vtkVisibility 0 vertexInLabFrame  -0.0145711254908992 0.0168531604015955 -0.0916666666666667 -0.031914655118133 0.0168531604015955 -0.0916666666666667 0.0464857806090322 -0.033706320803191 0.183333333333333
TriangleWall id 12 indSpecies 2 position 0.116109411728794 -0.0773022265171146 0.343333333333333 orientation 1 0 0 0 velocity 0 0 0 angularVelocity 0 0 0 force 0 0 0 torque 0 0 0 vtkVisibility 0 vertexInLabFrame  -0.0397811765424113 0.033706320803191 -0.183333333333333 0.0386192591847539 -0.0168531604015955 0.0916666666666666 0.0011619173576573 -0.0168531604015955 0.0916666666666666
TriangleWall id 13 indSpecies 2 position 0.0846348224717045 -0.0582367056331606 0.251666666666667 orientation 1 0 0 0 velocity 0 0 0 angularVelocity 0 0 0 force 0 0 0 torque 0 0 0 vtkVisibility 0 vertexInLabFrame  -0.0083065872853214 0.014640799919237 -0.0916666666666667 -0.0243299193294258 0.0212778813663125 -0.0916666666666667 0.0326365066147472 -0.0359186812855495 0.183333333333333
TriangleWall id 14 indSpecies 2 position 0.0867471632862829 -0.0703117646555342 0.343333333333333 orientation 1 0 0 0 velocity 0 0 0 angularVelocity 0 0 0 force 0 0 0 torque 0 0 0 vtkVisibility 0 vertexInLabFrame  -0.0264422601440042 0.0333529403886861 -0.183333333333333 0.0305241658001688 -0.0238436222631759 0.0916666666666666 -0.00408190565616466 -0.00950931812551015 0.0916666666666666
TriangleWall id 15 indSpecies 2 position 0.0636704455018496 -0.0471583346352046 0.251666666666667 orientation 1 0 0 0 velocity 0 0 0 angularVelocity 0 0 0 force 0 0 0 torque 0 0 0 vtkVisibility 0 vertexInLabFrame  -0.0033655423595709 0.0101995103683565 -0.0916666666666667 -0.0156292697686977 0.0224632377774833 -0.0916666666666667 0.0189948121282686 -0.0326627481458398 0.183333333333333
TriangleWall id 16 indSpecies 2 position 0.0622951168607419 -0.0526169740028825 0.343333333333333 orientation 1 0 0 0 velocity 0 0 0 angularVelocity 0 0 0 force 0 0 0 torque 0 0 0 vtkVisibility 0 vertexInLabFrame  -0.01425394112759 0.0279218771451612 -0.183333333333333 0.0203701407693763 -0.0272041087781619 0.0916666666666666 -0.00611619964178626 -0.000717768366999327 0.0916666666666666
TriangleWall id 17 indSpecies 2 position 0.0485413957460613 -0.0289005346804067 0.251666666666667 orientation 1 0 0 0 velocity 0 0 0 angularVelocity 0 0 0 force 0 0 0 torque 0 0 0 vtkVisibility 0 vertexInLabFrame  -0.00050022001290944 0.00420543782268536 -0.0916666666666667 -0.0071373014599849 0.0202287698667898 -0.0916666666666667 0.00763752147289435 -0.0244342076894751 0.183333333333333
TriangleWall id 18 indSpecies 2 position 0.0464758748621073 -0.026911726032349 0.343333333333333 orientation 1 0 0 0 velocity 0 0 0 angularVelocity 0 0 0 force 0 0 0 torque 0 0 0 vtkVisibility 0 vertexInLabFrame  -0.00507178057603091 0.0182399612187321 -0.183333333333333 0.00970304235684834 -0.0264230163375328 0.0916666666666666 -0.00463126178081744 0.00818305511880069 0.0916666666666666
TriangleWall id 19 indSpecies 2 position 0.0415509338844809 -0.00624289030451611 0.251666666666667 orientation 1 0 0 0 velocity 0 0 0 angularVelocity 0 0 0 force 0 0 0 torque 0 0 0 vertexInLabFrame  -0.000146839598404488 -0.00242887450910079 -0.0916666666666667 -0.000146839598404488 0.014914655118133 -0.0916666666666667 0.000293679196808977 -0.0124857806090322 0.183333333333333
TriangleWall id 20 indSpecies 2 position 0.0416977734828854 0.00289058827120563 0.343333333333333 orientation 1 0 0 0 velocity 0 0 0 angularVelocity 0 0 0 force 0 0 0 torque 0 0 0 vertexInLabFrame  -0.000293679196808977 0.00578117654241127 -0.183333333333333 0.000146839598404488 -0.021619259184754 0.0916666666666666 0.000146839598404488 0.0158380826423427 0.0916666666666666
TriangleWall id 21 indSpecies 2 position 0.0437632943668394 0.0173651775282955 0.251666666666667 orientation 1 0 0 0 velocity 0 0 0 angularVelocity 0 0 0 force 0 0 0 torque 0 0 0 vertexInLabFrame  -0.00235920008076296 -0.00869341271467861 -0.0916666666666667 0.00427788136631248 0.00732991932942581 -0.0916666666666667 -0.00191868128554951 0.0013634933852528 0.183333333333333
TriangleWall id 22 indSpecies 2 position 0.0486882353444658 0.0322528367137171 0.343333333333333 orientation 1 0 0 0 velocity 0 0 0 angularVelocity 0 0 0 force 0 0 0 torque 0 0 0 vertexInLabFrame  -0.000647059611313928 -0.00755773985599582 -0.183333333333333 -0.00684362226317593 -0.0135241658001688 0.0916666666666666 0.00749068187448986 0.0210819056561647 0.0916666666666666
TriangleWall id 23 indSpecies 2 position 0.0548416653647954 0.0383295544981504 0.251666666666667 orientation 1 0 0 0 velocity 0 0 0 angularVelocity 0 0 0 force 0 0 0 torque 0 0 0 vertexInLabFrame  -0.00680048963164354 -0.0136344576404291 -0.0916666666666667 0.00546323777748328 -0.00137073023130228 -0.0916666666666667 0.00133725185416025 0.0150051878717314 0.183333333333333
TriangleWall id 24 indSpecies 2 position 0.0663830259971175 0.0567048831392581 0.343333333333333 orientation 1 0 0 0 velocity 0 0 0 angularVelocity 0 0 0 force 0 0 0 torque 0 0 0 vertexInLabFrame  -0.00607812285483882 -0.01974605887241 -0.183333333333333 -0.0102041087781618 -0.00337014076937629 0.0916666666666666 0.0162822316330007 0.0231161996417863 0.0916666666666666
TriangleWall id 25 indSpecies 2 position 0.0730994653195933 0.0534586042539387 0.251666666666667 orientation 1 0 0 0 velocity 0 0 0 angularVelocity 0 0 0 force 0 0 0 torque 0 0 0 vertexInLabFrame  -0.0127945621773146 -0.0164997799870905 -0.0916666666666667 0.00322876986678979 -0.00986269854001508 -0.0916666666666667 0.00956579231052485 0.0263624785271056 0.183333333333333
TriangleWall id 26 indSpecies 2 position 0.092088273967651 0.0725241251378927 0.343333333333333 orientation 1 0 0 0 velocity 0 0 0 angularVelocity 0 0 0 force 0 0 0 torque 0 0 0 vertexInLabFrame  -0.0157600387812679 -0.0289282194239691 -0.183333333333333 -0.00942301633753281 0.00729695764315164 0.0916666666666666 0.0251830551188007 0.0216312617808175 0.0916666666666666
TriangleWall id 27 indSpecies 2 position 0.0957571096954839 0.0604490661155191 0.251666666666667 orientation 1 0 0 0 velocity 0 0 0 angularVelocity 0 0 0 force 0 0 0 torque 0 0 0 vertexInLabFrame  -0.0194288745091008 -0.0168531604015955 -0.0916666666666667 -0.00208534488186699 -0.0168531604015955 -0.0916666666666667 0.0215142193909678 0.033706320803191 0.183333333333333
TriangleWall id 28 indSpecies 2 position 0.121890588271206 0.0773022265171146 0.343333333333333 orientation 1 0 0 0 velocity 0 0 0 angularVelocity 0 0 0 force 0 0 0 torque 0 0 0 vertexInLabFrame  -0.0282188234575887 -0.033706320803191 -0.183333333333333 -0.00461925918475395 0.0168531604015955 0.0916666666666666 0.0328380826423427 0.0168531604015955 0.0916666666666666
TriangleWall id 29 indSpecies 2 position 0.119365177528296 0.0582367056331606 0.251666666666667 orientation 1 0 0 0 velocity 0 0 0 angularVelocity 0 0 0 force 0 0 0 torque 0 0 0 vertexInLabFrame  -0.0256934127146786 -0.014640799919237 -0.0916666666666667 -0.00967008067057419 -0.0212778813663125 -0.0916666666666667 0.0353634933852528 0.0359186812855495 0.183333333333333
TriangleWall id 30 indSpecies 2 position 0.151252836713717 0.0703117646555342 0.343333333333333 orientation 1 0 0 0 velocity 0 0 0 angularVelocity 0 0 0 force 0 0 0 torque 0 0 0 vertexInLabFrame  -0.0415577398559958 -0.0333529403886861 -0.183333333333333 0.00347583419983119 0.0238436222631759 0.0916666666666666 0.0380819056561647 0.00950931812551013 0.0916666666666666
TriangleWall id 31 indSpecies 2 position 0.14032955449815 0.0471583346352046 0.251666666666667 orientation 1 0 0 0 velocity 0 0 0 angularVelocity 0 0 0 force 0 0 0 torque 0 0 0 vertexInLabFrame  -0.0306344576404291 -0.0101995103683565 -0.0916666666666667 -0.0183707302313023 -0.0224632377774833 -0.0916666666666667 0.0490051878717314 0.0326627481458397 0.183333333333333
TriangleWall id 32 indSpecies 2 position 0.175704883139258 0.0526169740028825 0.343333333333333 orientation 1 0 0 0 velocity 0 0 0 angularVelocity 0 0 0 force 0 0 0 torque 0 0 0 vertexInLabFrame  -0.05374605887241 -0.0279218771451612 -0.183333333333333 0.0136298592306237 0.0272041087781618 0.0916666666666666 0.0401161996417862 0.000717768366999327 0.0916666666666666
TriangleWall id 33 indSpecies 2 position 0.155458604253939 0.0289005346804067 0.251666666666667 orientation 1 0 0 0 velocity 0 0 0 angularVelocity 0 0 0 force 0 0 0 torque 0 0 0 vertexInLabFrame  -0.0334997799870906 -0.00420543782268537 -0.0916666666666667 -0.0268626985400151 -0.0202287698667898 -0.0916666666666667 0.0603624785271057 0.0244342076894752 0.183333333333333
TriangleWall id 34 indSpecies 2 position 0.191524125137893 0.0269117260323491 0.343333333333333 orientation 1 0 0 0 velocity 0 0 0 angularVelocity 0 0 0 force 0 0 0 torque 0 0 0 vertexInLabFrame  -0.0629282194239691 -0.0182399612187321 -0.183333333333333 0.0242969576431517 0.0264230163375328 0.0916666666666666 0.0386312617808175 -0.00818305511880068 0.0916666666666666
BasicUnionOfWalls id 35 indSpecies 2 position 0 0 0 orientation 1 0 0 0 velocity 0 0 0 angularVelocity 0 0 0 force 0 0 0 torque 0 0 0 renderedWalls 1 AxisymmetricIntersectionOfWalls id 0 indSpecies 2 position 0.085 0 0 orientation 0.707106781186547 0 -0.707106781186547 0 velocity 0 0 0 angularVelocity 0 0 0 force 0 0 0 torque 0 0 0 numIntersectionOfWalls 5 position 0.04445 0 0 orientation 1 0 -0 0 position 0 0 0 orientation 0.707106781186547 0 -0.707106781186547 0 position 0 0 0.16 orientation 0.707106781186547 0 0.707106781186547 0 position 0 0 0.07 orientation 0.707106781186547 0 -0.707106781186547 0 position 0.048895 0 0 orientation 0 0 1 0 numWalls 2 BasicIntersectionOfWalls id 1 indSpecies 2 position 0 0 0 orientation 1 0 0 0 velocity 0 0 0 angularVelocity 0 0 0 force 0 0 0 torque 0 0 0 numIntersectionOfWalls 2 AxisymmetricIntersectionOfWalls id 1 indSpecies 2 position 0 0 0 orientation 1 0 -0 0 velocity 0 0 0 angularVelocity 0 0 0 force 0 0 0 torque 0 0 0 numIntersectionOfWalls 1 position 0.07 0 0 orientation 1 0 -0 0 AxisymmetricIntersectionOfWalls id 2 indSpecies 2 position 0.555 0 0 orientation 0.707106781186547 0 -0.707106781186547 0 velocity 0 0 0 angularVelocity 0 0 0 force 0 0 0 torque 0 0 0 numIntersectionOfWalls 3 position 0.04445 0 0 orientation 1 0 -0 0 position 0 0 0 orientation 0.707106781186547 0 0.707106781186547 0 position 0 0 -0.16 orientation 0.707106781186547 0 -0.707106781186547 0 BasicIntersectionOfWalls id 2 indSpecies 2 position 0 0 0 orientation 1 0 0 0 velocity 0 0 0 angularVelocity 0 0 0 force 0 0 0 torque 0 0 0 numIntersectionOfWalls 2 AxisymmetricIntersectionOfWalls id 1 indSpecies 2 position 0 0 0 orientation 1 0 -0 0 velocity 0 0 0 angularVelocity 0 0 0 force 0 0 0 torque 0 0 0 numIntersectionOfWalls 1 position 0.07 0 0 orientation 1 0 -0 0 AxisymmetricIntersectionOfWalls id 2 indSpecies 2 position 0.085 0 0 orientation 0.707106781186547 0 -0.707106781186547 0 velocity 0 0 0 angularVelocity 0 0 0 force 0 0 0 torque 0 0 0 numIntersectionOfWalls 3 position 0.04445 0 0 orientation 1 0 -0 0 position 0 0 0 orientation 0.707106781186547 0 -0.707106781186547 0 position 0 0 0.16 orientation 0.707106781186547 0 0.707106781186547 0
AxisymmetricIntersectionOfWalls id 36 indSpecies 2 position 0 0 0 orientation 0.99274241240431 0.120260145574795 0 0 velocity 0 0 0 angularVelocity 48.1710873550435 0 0 force 0 0 0 torque 0 0 0 numIntersectionOfWalls 1 position 0.03 0 0 orientation 0 0 1 0
Screw id 37 indSpecies 3 position 0 0 0 orientation 1 0 0 0 velocity 0 0 0 angularVelocity 0 0 0 force 0 0 0 torque 0 0 0 start 0 0 0 Length 0.11 Radius 0.067 Revolutions -2.75 Omega 7.66666666666667 Thickness 0.0025 Offset 0.0383728707004018 ScrewType 1
Screw id 38 indSpecies 2 position 0.63 0 0 orientation 0 0 0.707106781186548 0.707106781186548 velocity 0 0 0 angularVelocity 0 0 0 force 0 0 0 torque 0 0 0 start 0 0 0 Length 0.08 Radius 0.067 Revolutions 2 Omega -7.66666666666667 Thickness 0.0025 Offset -0.0384604799942383 ScrewType 1
InfiniteWall id 39 indSpecies 3 position 0.00500515704787845 0 -0.205 orientation 0.707106781186548 0 0.707106781186548 0 velocity 1 0 0 angularVelocity 0 0 0 force 0 0 0 torque 0 0 0