MercuryDPM 0.14 name GCGSelfTest revision 3412 repository https://svn.mercurydpm.org/SourceCode/MercuryLab
dataFile    fileType ONE_FILE saveCount 489 counter 12 lastSavedTimeStep 4894
fStatFile   fileType ONE_FILE saveCount 489 counter 12 lastSavedTimeStep 4894
eneFile     fileType ONE_FILE saveCount 489 counter 12 lastSavedTimeStep 4894
restartFile fileType ONE_FILE saveCount 489 counter 12 lastSavedTimeStep 4894
statFile    fileType ONE_FILE saveCount 489 counter 0
interactionFile fileType NO_FILE saveCount 0 counter 0
xMin 0 xMax 0.315 yMin -0.035 yMax 0.035 zMin -0.1025 zMax 0.355
timeStep 1.02177694551543e-05 time 0.0500057637135231 ntimeSteps 4894 timeMax 0.05
systemDimensions 3 particleDimensions 3 gravity 0 0 -9.8 writeVTK 1 MULTIPLE_FILES NO_FILE 12 12 0 random  0 1103515245 12345 1073741824 607 273 784607267 xBallsArguments -v0 -solidf -cmode 8 -s 4.7 -oh 0 -o 175 -h 1000 -w 1500
Species 4
LinearPlasticViscoelasticFrictionSpecies id 0 density 1427 loadingStiffness 19715.6864 maxUnloadingStiffness 98578.432 cohesionStiffness 86058.971136 maxPenetration 0.05 dissipation 0.956758748879167 slidingStiffness 5633.05325714286 slidingDissipation 0.273359642536905 slidingFrictionCoefficient 0.5 slidingFrictionCoefficientStatic 0.5 rollingStiffness 3943.13728 rollingDissipation 0.191351749775833 rollingFrictionCoefficient 0.5 rollingFrictionCoefficientStatic 0.5 torsionStiffness 0 torsionDissipation 0 torsionFrictionCoefficient 0 torsionFrictionCoefficientStatic 0
LinearPlasticViscoelasticFrictionSpecies id 1 density 1427 loadingStiffness 4813.4 maxUnloadingStiffness 24067 cohesionStiffness 21010.491 maxPenetration 0.05 dissipation 0.233583678925578 slidingStiffness 1375.25714285714 slidingDissipation 0.0667381939787365 slidingFrictionCoefficient 0.5 slidingFrictionCoefficientStatic 0.5 rollingStiffness 962.68 rollingDissipation 0.0467167357851156 rollingFrictionCoefficient 0.5 rollingFrictionCoefficientStatic 0.5 torsionStiffness 0 torsionDissipation 0 torsionFrictionCoefficient 0 torsionFrictionCoefficientStatic 0
LinearPlasticViscoelasticFrictionMixedSpecies idA 1 idB 0 loadingStiffness 7737.71051805338 maxUnloadingStiffness 38688.5525902669 cohesionStiffness 33775.106411303 maxPenetration 0.05 dissipation 0.37549401447377 slidingStiffness 1375.25714285714 slidingDissipation 0.0667381939787365 slidingFrictionCoefficient 0.5 slidingFrictionCoefficientStatic 0.5 rollingStiffness 1547.54210361068 rollingDissipation 0.0750988028947541 rollingFrictionCoefficient 0.5 rollingFrictionCoefficientStatic 0.5 torsionStiffness 0 torsionDissipation 0 torsionFrictionCoefficient 0 torsionFrictionCoefficientStatic 0
LinearPlasticViscoelasticFrictionSpecies id 2 density 1427 loadingStiffness 19715.6864 maxUnloadingStiffness 98578.432 cohesionStiffness 86058.971136 maxPenetration 0.05 dissipation 0.956758748879167 slidingStiffness 5633.05325714286 slidingDissipation 0.273359642536905 slidingFrictionCoefficient 0.5 slidingFrictionCoefficientStatic 0.5 rollingStiffness 3943.13728 rollingDissipation 0.191351749775833 rollingFrictionCoefficient 0.5 rollingFrictionCoefficientStatic 0.5 torsionStiffness 0 torsionDissipation 0 torsionFrictionCoefficient 0 torsionFrictionCoefficientStatic 0
LinearPlasticViscoelasticFrictionMixedSpecies idA 2 idB 0 loadingStiffness 19715.6864 maxUnloadingStiffness 98578.432 cohesionStiffness 14786.7648 maxPenetration 0.05 dissipation 0.956758748879167 slidingStiffness 5633.05325714286 slidingDissipation 0.273359642536905 slidingFrictionCoefficient 0.44 slidingFrictionCoefficientStatic 0.44 rollingStiffness 3943.13728 rollingDissipation 0.191351749775833 rollingFrictionCoefficient 0.11 rollingFrictionCoefficientStatic 0.11 torsionStiffness 0 torsionDissipation 0 torsionFrictionCoefficient 0 torsionFrictionCoefficientStatic 0
LinearPlasticViscoelasticFrictionMixedSpecies idA 2 idB 1 loadingStiffness 4813.4 maxUnloadingStiffness 24067 cohesionStiffness 3610.05 maxPenetration 0.05 dissipation 0.233583678925578 slidingStiffness 5633.05325714286 slidingDissipation 0.273359642536905 slidingFrictionCoefficient 0.44 slidingFrictionCoefficientStatic 0.44 rollingStiffness 962.68 rollingDissipation 0.0467167357851156 rollingFrictionCoefficient 0.11 rollingFrictionCoefficientStatic 0.11 torsionStiffness 0 torsionDissipation 0 torsionFrictionCoefficient 0 torsionFrictionCoefficientStatic 0
LinearPlasticViscoelasticFrictionSpecies id 3 density 1427 loadingStiffness 19715.6864 maxUnloadingStiffness 98578.432 cohesionStiffness 86058.971136 maxPenetration 0.05 dissipation 0.956758748879167 slidingStiffness 5633.05325714286 slidingDissipation 0.273359642536905 slidingFrictionCoefficient 0.5 slidingFrictionCoefficientStatic 0.5 rollingStiffness 3943.13728 rollingDissipation 0.191351749775833 rollingFrictionCoefficient 0.5 rollingFrictionCoefficientStatic 0.5 torsionStiffness 0 torsionDissipation 0 torsionFrictionCoefficient 0 torsionFrictionCoefficientStatic 0
LinearPlasticViscoelasticFrictionMixedSpecies idA 3 idB 0 loadingStiffness 19715.6864 maxUnloadingStiffness 98578.432 cohesionStiffness 86058.971136 maxPenetration 0.05 dissipation 1.79927277000665 slidingStiffness 5633.05325714286 slidingDissipation 0.273359642536905 slidingFrictionCoefficient 0.5 slidingFrictionCoefficientStatic 0.5 rollingStiffness 3943.13728 rollingDissipation 0.191351749775833 rollingFrictionCoefficient 0.5 rollingFrictionCoefficientStatic 0.5 torsionStiffness 0 torsionDissipation 0 torsionFrictionCoefficient 0 torsionFrictionCoefficientStatic 0
LinearPlasticViscoelasticFrictionMixedSpecies idA 3 idB 1 loadingStiffness 4813.4 maxUnloadingStiffness 24067 cohesionStiffness 21010.491 maxPenetration 0.05 dissipation 0.439275578614904 slidingStiffness 5633.05325714286 slidingDissipation 0.273359642536905 slidingFrictionCoefficient 0.5 slidingFrictionCoefficientStatic 0.5 rollingStiffness 962.68 rollingDissipation 0.0467167357851156 rollingFrictionCoefficient 0.5 rollingFrictionCoefficientStatic 0.5 torsionStiffness 0 torsionDissipation 0 torsionFrictionCoefficient 0 torsionFrictionCoefficientStatic 0
LinearPlasticViscoelasticFrictionMixedSpecies idA 3 idB 2 loadingStiffness 19715.6864 maxUnloadingStiffness 98578.432 cohesionStiffness 86058.971136 maxPenetration 0.05 dissipation 0.956758748879167 slidingStiffness 5633.05325714286 slidingDissipation 0.273359642536905 slidingFrictionCoefficient 0.5 slidingFrictionCoefficientStatic 0.5 rollingStiffness 3943.13728 rollingDissipation 0.191351749775833 rollingFrictionCoefficient 0.5 rollingFrictionCoefficientStatic 0.5 torsionStiffness 0 torsionDissipation 0 torsionFrictionCoefficient 0 torsionFrictionCoefficientStatic 0
Walls 54
IntersectionOfWalls id 0 indSpecies 2 position 0 0 0 orientation 1 0 0 0 velocity 0 0 0 angularVelocity 0 0 0 force 0 0 0 torque 0 0 0 renderedWalls 1 AxisymmetricIntersectionOfWalls id 0 indSpecies 2 position 0 0 0 orientation 1 0 -0 0 velocity 0 0 0 angularVelocity 0 0 0 force 0 0 0 torque 0 0 0 numIntersectionOfWalls 2 position 0 0 0.315 orientation 0.707106781186547 0 -0.707106781186547 0 position 0.035 0 0 orientation 0 0 1 0 numIntersectionOfWalls 2 position 0.315 0 0 orientation 1 0 -0 0 position 0 0 -0.035 orientation 0.707106781186547 0 -0.707106781186547 0
InfiniteWall id 1 indSpecies 2 position 0 0 0 orientation 0 0 1 0 velocity 0 0 0 angularVelocity 0 0 0 force 0 0 0 torque 0 0 0 renderedWalls 1 AxisymmetricIntersectionOfWalls id 0 indSpecies 2 position 0 0 0 orientation 1 0 -0 0 velocity 0 0 0 angularVelocity 0 0 0 force 0 0 0 torque 0 0 0 numIntersectionOfWalls 2 position 0 0 0 orientation 0.707106781186547 0 0.707106781186547 0 position 0.035 0 0 orientation 0 0 1 0
InfiniteWall id 2 indSpecies 2 position 0 0 0.355 orientation 0.707106781186548 0 -0.707106781186548 0 velocity 0 0 0 angularVelocity 0 0 0 force 0 0 0 torque 0 0 0
TriangleWall id 3 indSpecies 2 position 0.105417097544211 0.00624289030451611 0.171666666666667 orientation 1 0 0 0 velocity 0 0 0 angularVelocity 0 0 0 force 0 0 0 torque 0 0 0 vtkVisibility 0 vertexInLabFrame  -0.0411191446872494 -0.00190700789770765 -0.0916666666666667 -0.0411191446872494 -0.0105787727113246 -0.0916666666666667 0.0822382893744989 0.0124857806090322 0.183333333333333
TriangleWall id 4 indSpecies 2 position 0.146536242231461 -0.00144529413560282 0.263333333333333 orientation 1 0 0 0 velocity 0 0 0 angularVelocity 0 0 0 force 0 0 0 torque 0 0 0 vtkVisibility 0 vertexInLabFrame  -0.0822382893744989 -0.00289058827120563 -0.183333333333333 0.0411191446872494 0.0201739650491511 0.0916666666666667 0.0411191446872494 -0.0172833767779455 0.0916666666666667
TriangleWall id 5 indSpecies 2 position 0.104310917303032 -0.0118040339164058 0.171666666666667 orientation 1 0 0 0 velocity 0 0 0 angularVelocity 0 0 0 force 0 0 0 torque 0 0 0 vtkVisibility 0 vertexInLabFrame  -0.0400129644460702 0.00746815150959736 -0.0916666666666667 -0.0433315051696079 -0.00054351451245485 -0.0916666666666667 0.0833444696156782 -0.00692463699714251 0.183333333333333
TriangleWall id 6 indSpecies 2 position 0.14065196061106 -0.0281369872374303 0.263333333333333 orientation 1 0 0 0 velocity 0 0 0 angularVelocity 0 0 0 force 0 0 0 torque 0 0 0 vtkVisibility 0 vertexInLabFrame  -0.0796725484776355 0.0157894388085696 -0.183333333333333 0.0470034263076506 0.00940831632388195 0.0916666666666667 0.0326691221699848 -0.0251977551324516 0.0916666666666667
TriangleWall id 7 indSpecies 2 position 0.096382681114443 -0.0280539009773888 0.171666666666667 orientation 1 0 0 0 velocity 0 0 0 angularVelocity 0 0 0 force 0 0 0 torque 0 0 0 vtkVisibility 0 vertexInLabFrame  -0.035403268981019 0.0157063525485282 -0.0916666666666667 -0.0415351326855824 0.00957448884396478 -0.0916666666666667 0.0769384016666013 -0.025280841392493 0.183333333333333
TriangleWall id 8 indSpecies 2 position 0.125001124526596 -0.0505450790947834 0.263333333333333 orientation 1 0 0 0 velocity 0 0 0 angularVelocity 0 0 0 force 0 0 0 torque 0 0 0 vtkVisibility 0 vertexInLabFrame  -0.070153576097735 0.0320656669613594 -0.183333333333333 0.0483199582544487 -0.0027896632750984 0.0916666666666667 0.0218336178432862 -0.0292760036862609 0.0916666666666667
TriangleWall id 9 indSpecies 2 position 0.082839391068517 -0.0400328159238101 0.171666666666667 orientation 1 0 0 0 velocity 0 0 0 angularVelocity 0 0 0 force 0 0 0 torque 0 0 0 vtkVisibility 0 vertexInLabFrame  -0.0279918426396563 0.021553403790386 -0.0916666666666667 -0.0360035086617085 0.0182348630668483 -0.0916666666666667 0.0639953513013648 -0.0397882668572343 0.183333333333333
TriangleWall id 10 indSpecies 2 position 0.101966431896746 -0.0652581408522388 0.263333333333333 orientation 1 0 0 0 velocity 0 0 0 angularVelocity 0 0 0 force 0 0 0 torque 0 0 0 vtkVisibility 0 vertexInLabFrame  -0.0551305494899377 0.043460187995277 -0.183333333333333 0.0448683104731356 -0.0145629419288056 0.0916666666666667 0.0102622390168021 -0.0288972460664714 0.0916666666666667
TriangleWall id 11 indSpecies 2 position 0.0657428903045161 -0.0459170975442112 0.171666666666667 orientation 1 0 0 0 velocity 0 0 0 angularVelocity 0 0 0 force 0 0 0 torque 0 0 0 vtkVisibility 0 vertexInLabFrame  -0.0189070078977077 0.0241191446872494 -0.0916666666666667 -0.0275787727113246 0.0241191446872494 -0.0916666666666667 0.0464857806090322 -0.0482382893744989 0.183333333333333
TriangleWall id 12 indSpecies 2 position 0.0750547058643972 -0.0700362422314607 0.263333333333333 orientation 1 0 0 0 velocity 0 0 0 angularVelocity 0 0 0 force 0 0 0 torque 0 0 0 vtkVisibility 0 vertexInLabFrame  -0.0368905882712056 0.0482382893744989 -0.183333333333333 0.0371739650491511 -0.0241191446872494 0.0916666666666667 -0.000283376777945488 -0.0241191446872494 0.0916666666666667
TriangleWall id 13 indSpecies 2 position 0.0476959660835942 -0.044810917303032 0.171666666666667 orientation 1 0 0 0 velocity 0 0 0 angularVelocity 0 0 0 force 0 0 0 torque 0 0 0 vtkVisibility 0 vertexInLabFrame  -0.00953184849040264 0.0230129644460702 -0.0916666666666667 -0.0175435145124549 0.0263315051696079 -0.0916666666666667 0.0270753630028575 -0.0493444696156781 0.183333333333333
TriangleWall id 14 indSpecies 2 position 0.0483630127625697 -0.0641519606110595 0.263333333333333 orientation 1 0 0 0 velocity 0 0 0 angularVelocity 0 0 0 force 0 0 0 torque 0 0 0 vtkVisibility 0 vertexInLabFrame  -0.0182105611914304 0.0456725484776354 -0.183333333333333 0.026408316323882 -0.0300034263076506 0.0916666666666667 -0.00819775513245155 -0.0156691221699848 0.0916666666666667
TriangleWall id 15 indSpecies 2 position 0.0314460990226112 -0.036882681114443 0.171666666666667 orientation 1 0 0 0 velocity 0 0 0 angularVelocity 0 0 0 force 0 0 0 torque 0 0 0 vtkVisibility 0 vertexInLabFrame  -0.00129364745147181 0.018403268981019 -0.0916666666666667 -0.00742551115603522 0.0245351326855824 -0.0916666666666667 0.00871915860750702 -0.0429384016666013 0.183333333333333
TriangleWall id 16 indSpecies 2 position 0.0259549209052166 -0.0485011245265956 0.263333333333333 orientation 1 0 0 0 velocity 0 0 0 angularVelocity 0 0 0 force 0 0 0 torque 0 0 0 vtkVisibility 0 vertexInLabFrame  -0.00193433303864065 0.036153576097735 -0.183333333333333 0.0142103367249016 -0.0313199582544487 0.0916666666666667 -0.0122760036862609 -0.00483361784328621 0.0916666666666667
TriangleWall id 17 indSpecies 2 position 0.0194671840761899 -0.023339391068517 0.171666666666667 orientation 1 0 0 0 velocity 0 0 0 angularVelocity 0 0 0 force 0 0 0 torque 0 0 0 vtkVisibility 0 vertexInLabFrame  0.004553403790386 0.0109918426396563 -0.0916666666666667 0.00123486306684827 0.0190035086617085 -0.0916666666666667 -0.00578826685723428 -0.0299953513013648 0.183333333333333
TriangleWall id 18 indSpecies 2 position 0.0112418591477612 -0.0254664318967462 0.263333333333333 orientation 1 0 0 0 velocity 0 0 0 angularVelocity 0 0 0 force 0 0 0 torque 0 0 0 vtkVisibility 0 vertexInLabFrame  0.00946018799527696 0.0211305494899378 -0.183333333333333 0.00243705807119441 -0.0278683104731356 0.0916666666666667 -0.0118972460664714 0.00673776098319788 0.0916666666666667
TriangleWall id 19 indSpecies 2 position 0.0135829024557888 -0.00624289030451611 0.171666666666667 orientation 1 0 0 0 velocity 0 0 0 angularVelocity 0 0 0 force 0 0 0 torque 0 0 0 vertexInLabFrame  0.00711914468724945 0.00190700789770766 -0.0916666666666667 0.00711914468724945 0.0105787727113246 -0.0916666666666667 -0.0142382893744989 -0.0124857806090322 0.183333333333333
TriangleWall id 20 indSpecies 2 position 0.00646375776853932 0.00144529413560281 0.263333333333333 orientation 1 0 0 0 velocity 0 0 0 angularVelocity 0 0 0 force 0 0 0 torque 0 0 0 vertexInLabFrame  0.0142382893744989 0.00289058827120564 -0.183333333333333 -0.00711914468724945 -0.0201739650491511 0.0916666666666667 -0.00711914468724945 0.0172833767779455 0.0916666666666667
TriangleWall id 21 indSpecies 2 position 0.014689082696968 0.0118040339164058 0.171666666666667 orientation 1 0 0 0 velocity 0 0 0 angularVelocity 0 0 0 force 0 0 0 torque 0 0 0 vertexInLabFrame  0.00601296444607021 -0.00746815150959736 -0.0916666666666667 0.00933150516960793 0.000543514512454855 -0.0916666666666667 -0.0153444696156781 0.0069246369971425 0.183333333333333
TriangleWall id 22 indSpecies 2 position 0.0123480393889405 0.0281369872374303 0.263333333333333 orientation 1 0 0 0 velocity 0 0 0 angularVelocity 0 0 0 force 0 0 0 torque 0 0 0 vertexInLabFrame  0.0116725484776355 -0.0157894388085696 -0.183333333333333 -0.0130034263076506 -0.00940831632388195 0.0916666666666667 0.00133087783001517 0.0251977551324516 0.0916666666666667
TriangleWall id 23 indSpecies 2 position 0.022617318885557 0.0280539009773888 0.171666666666667 orientation 1 0 0 0 velocity 0 0 0 angularVelocity 0 0 0 force 0 0 0 torque 0 0 0 vertexInLabFrame  0.00140326898101896 -0.0157063525485282 -0.0916666666666667 0.00753513268558237 -0.00957448884396478 -0.0916666666666667 -0.00893840166660133 0.025280841392493 0.183333333333333
TriangleWall id 24 indSpecies 2 position 0.0279988754734044 0.0505450790947834 0.263333333333333 orientation 1 0 0 0 velocity 0 0 0 angularVelocity 0 0 0 force 0 0 0 torque 0 0 0 vertexInLabFrame  0.00215357609773495 -0.0320656669613593 -0.183333333333333 -0.0143199582544487 0.00278966327509839 0.0916666666666667 0.0121663821567138 0.0292760036862609 0.0916666666666667
TriangleWall id 25 indSpecies 2 position 0.036160608931483 0.0400328159238101 0.171666666666667 orientation 1 0 0 0 velocity 0 0 0 angularVelocity 0 0 0 force 0 0 0 torque 0 0 0 vertexInLabFrame  -0.00600815736034367 -0.021553403790386 -0.0916666666666667 0.00200350866170854 -0.0182348630668483 -0.0916666666666667 0.00400464869863513 0.0397882668572343 0.183333333333333
TriangleWall id 26 indSpecies 2 position 0.0510335681032538 0.0652581408522387 0.263333333333333 orientation 1 0 0 0 velocity 0 0 0 angularVelocity 0 0 0 force 0 0 0 torque 0 0 0 vertexInLabFrame  -0.0128694505100622 -0.043460187995277 -0.183333333333333 -0.0108683104731356 0.0145629419288056 0.0916666666666667 0.0237377609831979 0.0288972460664714 0.0916666666666667
TriangleWall id 27 indSpecies 2 position 0.0532571096954839 0.0459170975442112 0.171666666666667 orientation 1 0 0 0 velocity 0 0 0 angularVelocity 0 0 0 force 0 0 0 torque 0 0 0 vertexInLabFrame  -0.0150929921022923 -0.0241191446872494 -0.0916666666666667 -0.00642122728867543 -0.0241191446872494 -0.0916666666666667 0.0215142193909678 0.0482382893744989 0.183333333333333
TriangleWall id 28 indSpecies 2 position 0.0779452941356028 0.0700362422314607 0.263333333333333 orientation 1 0 0 0 velocity 0 0 0 angularVelocity 0 0 0 force 0 0 0 torque 0 0 0 vertexInLabFrame  -0.0311094117287944 -0.0482382893744989 -0.183333333333333 -0.00317396504915114 0.0241191446872494 0.0916666666666667 0.0342833767779455 0.0241191446872494 0.0916666666666667
TriangleWall id 29 indSpecies 2 position 0.0713040339164058 0.044810917303032 0.171666666666667 orientation 1 0 0 0 velocity 0 0 0 angularVelocity 0 0 0 force 0 0 0 torque 0 0 0 vertexInLabFrame  -0.0244681515095974 -0.0230129644460702 -0.0916666666666667 -0.0164564854875451 -0.0263315051696079 -0.0916666666666667 0.0409246369971425 0.0493444696156781 0.183333333333333
TriangleWall id 30 indSpecies 2 position 0.10463698723743 0.0641519606110595 0.263333333333333 orientation 1 0 0 0 velocity 0 0 0 angularVelocity 0 0 0 force 0 0 0 torque 0 0 0 vertexInLabFrame  -0.0497894388085696 -0.0456725484776354 -0.183333333333333 0.00759168367611807 0.0300034263076506 0.0916666666666667 0.0421977551324516 0.0156691221699848 0.0916666666666667
TriangleWall id 31 indSpecies 2 position 0.0875539009773888 0.036882681114443 0.171666666666667 orientation 1 0 0 0 velocity 0 0 0 angularVelocity 0 0 0 force 0 0 0 torque 0 0 0 vertexInLabFrame  -0.0327063525485282 -0.018403268981019 -0.0916666666666667 -0.0265744888439648 -0.0245351326855824 -0.0916666666666667 0.059280841392493 0.0429384016666013 0.183333333333333
TriangleWall id 32 indSpecies 2 position 0.127045079094783 0.0485011245265956 0.263333333333333 orientation 1 0 0 0 velocity 0 0 0 angularVelocity 0 0 0 force 0 0 0 torque 0 0 0 vertexInLabFrame  -0.0660656669613593 -0.036153576097735 -0.183333333333333 0.0197896632750984 0.0313199582544487 0.0916666666666667 0.0462760036862609 0.00483361784328622 0.0916666666666667
TriangleWall id 33 indSpecies 2 position 0.0995328159238101 0.023339391068517 0.171666666666667 orientation 1 0 0 0 velocity 0 0 0 angularVelocity 0 0 0 force 0 0 0 torque 0 0 0 vertexInLabFrame  -0.038553403790386 -0.0109918426396563 -0.0916666666666667 -0.0352348630668483 -0.0190035086617085 -0.0916666666666667 0.0737882668572342 0.0299953513013649 0.183333333333333
TriangleWall id 34 indSpecies 2 position 0.141758140852239 0.0254664318967462 0.263333333333333 orientation 1 0 0 0 velocity 0 0 0 angularVelocity 0 0 0 force 0 0 0 torque 0 0 0 vertexInLabFrame  -0.0774601879952769 -0.0211305494899378 -0.183333333333333 0.0315629419288056 0.0278683104731356 0.0916666666666667 0.0458972460664714 -0.00673776098319786 0.0916666666666667
BasicUnionOfWalls id 35 indSpecies 2 position 0 0 0 orientation 1 0 0 0 velocity 0 0 0 angularVelocity 0 0 0 force -0.000260801253555431 -0.00885481791171416 -0.00929407619677002 torque 0.000518508494380888 0.000668366056040297 -0.000164982764614807 renderedWalls 1 AxisymmetricIntersectionOfWalls id 0 indSpecies 2 position 0.0425 0 0 orientation 0.707106781186547 0 -0.707106781186547 0 velocity 0 0 0 angularVelocity 0 0 0 force 0 0 0 torque 0 0 0 numIntersectionOfWalls 5 position 0.022225 0 0 orientation 1 0 -0 0 position 0 0 0 orientation 0.707106781186547 0 -0.707106781186547 0 position 0 0 0.08 orientation 0.707106781186547 0 0.707106781186547 0 position 0 0 0.035 orientation 0.707106781186547 0 -0.707106781186547 0 position 0.0244475 0 0 orientation 0 0 1 0 numWalls 2 BasicIntersectionOfWalls id 1 indSpecies 2 position 0 0 0 orientation 1 0 0 0 velocity 0 0 0 angularVelocity 0 0 0 force 0 0 0 torque 0 0 0 numIntersectionOfWalls 2 AxisymmetricIntersectionOfWalls id 1 indSpecies 2 position 0 0 0 orientation 1 0 -0 0 velocity 0 0 0 angularVelocity 0 0 0 force 0 0 0 torque 0 0 0 numIntersectionOfWalls 1 position 0.035 0 0 orientation 1 0 -0 0 AxisymmetricIntersectionOfWalls id 2 indSpecies 2 position 0.2775 0 0 orientation 0.707106781186547 0 -0.707106781186547 0 velocity 0 0 0 angularVelocity 0 0 0 force 0 0 0 torque 0 0 0 numIntersectionOfWalls 3 position 0.022225 0 0 orientation 1 0 -0 0 position 0 0 0 orientation 0.707106781186547 0 0.707106781186547 0 position 0 0 -0.08 orientation 0.707106781186547 0 -0.707106781186547 0 BasicIntersectionOfWalls id 2 indSpecies 2 position 0 0 0 orientation 1 0 0 0 velocity 0 0 0 angularVelocity 0 0 0 force 0 0 0 torque 0 0 0 numIntersectionOfWalls 2 AxisymmetricIntersectionOfWalls id 1 indSpecies 2 position 0 0 0 orientation 1 0 -0 0 velocity 0 0 0 angularVelocity 0 0 0 force 0 0 0 torque 0 0 0 numIntersectionOfWalls 1 position 0.035 0 0 orientation 1 0 -0 0 AxisymmetricIntersectionOfWalls id 2 indSpecies 2 position 0.0425 0 0 orientation 0.707106781186547 0 -0.707106781186547 0 velocity 0 0 0 angularVelocity 0 0 0 force 0 0 0 torque 0 0 0 numIntersectionOfWalls 3 position 0.022225 0 0 orientation 1 0 -0 0 position 0 0 0 orientation 0.707106781186547 0 -0.707106781186547 0 position 0 0 0.08 orientation 0.707106781186547 0 0.707106781186547 0
AxisymmetricIntersectionOfWalls id 36 indSpecies 2 position 0 0 0 orientation 0.358238367129821 0.933630158208356 0 0 velocity 0 0 0 angularVelocity 48.1710873550435 0 0 force -9.65726047391775e-06 0.00138517460565167 -0.00735472256127097 torque -5.1236551016002e-05 0.00120833644754386 0.00018927237324098 numIntersectionOfWalls 1 position 0.015 0 0 orientation 0 0 1 0
Screw id 37 indSpecies 3 position 0 0 0 orientation 1 0 0 0 velocity 0 0 0 angularVelocity 0 0 0 force 0 0 0 torque 0 0 0 start 0 0 0 Length 0.055 Radius 0.0335 Revolutions -2.75 Omega 7.66666666666667 Thickness 0.00125 Offset 0.383377521803723 ScrewType 1
Screw id 38 indSpecies 2 position 0.315 0 0 orientation 0 0 0.707106781186548 0.707106781186548 velocity 0 0 0 angularVelocity 0 0 0 force 0 0 0 torque 0 0 0 start 0 0 0 Length 0.04 Radius 0.0335 Revolutions 2 Omega -7.66666666666667 Thickness 0.00125 Offset -0.383455858036213 ScrewType 1
InfiniteWall id 39 indSpecies 3 position 0.0500057637135231 0 -0.1025 orientation 0.707106781186548 0 0.707106781186548 0 velocity 1 0 0 angularVelocity 0 0 0 force 0 0 0 torque 0 0 0