MercuryDPM 1.0 name DistributionToPSDSelfTest revision daca7dfd repository https://bitbucket.org/mercurydpm/mercurydpm.git
dataFile    fileType ONE_FILE saveCount 10 counter 22 lastSavedTimeStep 201
fStatFile   fileType ONE_FILE saveCount 20 counter 12 lastSavedTimeStep 201
eneFile     fileType ONE_FILE saveCount 20 counter 12 lastSavedTimeStep 201
restartFile fileType ONE_FILE saveCount 20 counter 12 lastSavedTimeStep 201
statFile    fileType ONE_FILE saveCount 20 counter 0
interactionFile fileType NO_FILE saveCount 0 counter 0
xMin 0 xMax 0.1 yMin 0 yMax 0.1 zMin 0 zMax 0.1
timeStep 0.0001 time 0.0200999999999999 ntimeSteps 201 timeMax 0.02
systemDimensions 3 particleDimensions 3 gravity 0 0 0 backgroundDrag 0 writeVTK 0 NO_FILE NO_FILE 0 0 0 0 0 random  0 1103515245 12345 1073741824 607 273 784607267
Species 1
LinearViscoelasticSpecies id 0 density 2000 stiffness 10000 dissipation 0
Walls 0
Boundaries 1
CubeInsertionBoundary id 0 maxFailed 1 massInserted 0.0736990851668595 volumeInserted 3.68495425834299e-05 numberOfParticlesInserted 8573 isActivated 1 psdCount 1 psd 51 0.000687755102040816 0 0.0007 0.00135172271946842 0.000712244897959184 0.00200658416332339 0.000724489795918367 0.00293765720819155 0.000736734693877551 0.00424176793218116 0.000748979591836735 0.00604122530371032 0.000761224489795918 0.00848727371101339 0.000773469387755102 0.011762828920405 0.000785714285714286 0.0160839973602057 0.00079795918367347 0.0216998262384858 0.000810204081632653 0.0288897276923756 0.000822448979591837 0.0379580806389388 0.000834693877551021 0.0492256515357085 0.000846938775510204 0.0630176942723076 0.000859183673469388 0.0796488833784639 0.000871428571428572 0.099405584245838 0.000883673469387755 0.122526336705239 0.000895918367346939 0.14918178080966 0.000908163265306123 0.179455536517917 0.000920408163265306 0.213327713028781 0.00093265306122449 0.250662727949142 0.000944897959183674 0.291202936590597 0.000957142857142858 0.334569205209182 0.000969387755102041 0.38026903245619 0.000981632653061225 0.427712179404696 0.000993877551020409 0.476233079235159 0.00100612244897959 0.525118643484312 0.00101836734693878 0.573639543314775 0.00103061224489796 0.62108269026328 0.00104285714285714 0.666782517510288 0.00105510204081633 0.710148786128872 0.00106734693877551 0.750688994770327 0.00107959183673469 0.788024009690688 0.00109183673469388 0.821896186201552 0.00110408163265306 0.852169941909809 0.00111632653061224 0.878825386014229 0.00112857142857143 0.90194613847363 0.00114081632653061 0.921702839341004 0.0011530612244898 0.93833402844716 0.00116530612244898 0.952126071183759 0.00117755102040816 0.963393642080529 0.00118979591836735 0.972461995027092 0.00120204081632653 0.979651896480982 0.00121428571428571 0.985267725359262 0.0012265306122449 0.989588893799063 0.00123877551020408 0.992864449008455 0.00125102040816326 0.995310497415758 0.00126326530612245 0.997109954787287 0.00127551020408163 0.998414065511277 0.00128775510204081 0.999345138556145 0.0013 1 initialVolume 0 samplingInterval 0 variableCumulativeVolumeFlowRate 0 particleToCopy 1 BaseParticle id 0 indSpecies 0 position 0 0 0 orientation 1 0 0 0 velocity 0 0 0 angularVelocity 0 0 0 force 0 0 0 torque 0 0 0 radius 1 invMass 1 timeStamp 0 posMin 0 0 0 posMax 0.1 0.1 0.1 velMin 0 0 0 velMax 0 0 0
Particles 8573
BaseParticle id 0 indSpecies 0 position 0.0462818009347824 0.0451551026244135 0.084762122589385 orientation 1 0 0 0 velocity 0 0 0 angularVelocity 0 0 0 force 0 0 0 torque 0 0 0 radius 0.000993392685331618 invMass 121763.892097889 timeStamp 0
BaseParticle id 1 indSpecies 0 position 0.0413787151301478 0.00993150145753146 0.0771077505526061 orientation 1 0 0 0 velocity 0 0 0 angularVelocity 0 0 0 force 0 0 0 torque 0 0 0 radius 0.000985018125351716 invMass 124896.057320278 timeStamp 0
BaseParticle id 2 indSpecies 0 position 0.0595721126910559 0.0926644036614668 0.0072714161991408 orientation 1 0 0 0 velocity 0 0 0 angularVelocity 0 0 0 force 0 0 0 torque 0 0 0 radius 0.000987861499215239 invMass 123820.688955462 timeStamp 0
BaseParticle id 3 indSpecies 0 position 0.0193444608530547 0.0803075776618835 0.0214465732486485 orientation 1 0 0 0 velocity 0 0 0 angularVelocity 0 0 0 force 0 0 0 torque 0 0 0 radius 0.00109367656467723 invMass 91246.1767918824 timeStamp 0
BaseParticle id 4 indSpecies 0 position 0.029164158246327 0.0651623650778436 0.0306274980952707 orientation 1 0 0 0 velocity 0 0 0 angularVelocity 0 0 0 force 0 0 0 torque 0 0 0 radius 0.00104030703068441 invMass 106022.195736574 timeStamp 0
BaseParticle id 5 indSpecies 0 position 0.020833188648491 0.0969839190161005 0.0537878006195763 orientation 1 0 0 0 velocity 0 0 0 angularVelocity 0 0 0 force 0 0 0 torque 0 0 0 radius 0.000931804225853505 invMass 147539.18086634 timeStamp 0
BaseParticle id 6 indSpecies 0 position 0.0965598651240022 0.0187199103471638 0.0751426060915528 orientation 1 0 0 0 velocity 0 0 0 angularVelocity 0 0 0 force 0 0 0 torque 0 0 0 radius 0.0008302074848947 invMass 208603.437849577 timeStamp 0
BaseParticle id 7 indSpecies 0 position 0.0128699160061126 0.0306166582455703 0.0591826113321049 orientation 1 0 0 0 velocity 0 0 0 angularVelocity 0 0 0 force 0 0 0 torque 0 0 0 radius 0.00112450859973032 invMass 83944.6556295814 timeStamp 0
BaseParticle id 8 indSpecies 0 position 0.0772737262050866 0.0846877715692969 0.0788350858922721 orientation 1 0 0 0 velocity 0 0 0 angularVelocity 0 0 0 force 0 0 0 torque 0 0 0 radius 0.000972981752532012 invMass 129588.752320371 timeStamp 0
BaseParticle id 9 indSpecies 0 position 0.0890366296386005 0.0611222965073564 0.0680974906607554 orientation 1 0 0 0 velocity 0 0 0 angularVelocity 0 0 0 force 0 0 0 torque 0 0 0 radius 0.000859239807151889 invMass 188164.732821829 timeStamp 0
BaseParticle id 10 indSpecies 0 position 0.0895757810309755 0.0425251628807512 0.07872364187732 orientation 1 0 0 0 velocity 0 0 0 angularVelocity 0 0 0 force 0 0 0 torque 0 0 0 radius 0.00107290494416813 invMass 96649.0646095876 timeStamp 0
BaseParticle id 11 indSpecies 0 position 0.0440465642660423 0.00549294957379536 0.00311985714070513 orientation 1 0 0 0 velocity 0 0 0 angularVelocity 0 0 0 force 0 0 0 torque 0 0 0 radius 0.000931428585972932 invMass 147717.758017627 timeStamp 0
BaseParticle id 12 indSpecies 0 position 0.0816598897039333 0.0772353886838673 0.0455273494631729 orientation 1 0 0 0 velocity 0 0 0 angularVelocity 0 0 0 force 0 0 0 torque 0 0 0 radius 0.00103882427802577 invMass 106476.832348795 timeStamp 0
BaseParticle id 13 indSpecies 0 position 0.0810699480762054 0.0967712630547851 0.058317498808431 orientation 1 0 0 0 velocity 0 0 0 angularVelocity 0 0 0 force 0 0 0 torque 0 0 0 radius 0.000890804376099299 invMass 168862.949007503 timeStamp 0
BaseParticle id 14 indSpecies 0 position 0.0256943308509008 0.0332247916299619 0.00975970969557789 orientation 1 0 0 0 velocity 0 0 0 angularVelocity 0 0 0 force 0 0 0 torque 0 0 0 radius 0.000967198868442605 invMass 131927.112092543 timeStamp 0
BaseParticle id 15 indSpecies 0 position 0.0690963677418452 0.048267025548716 0.076193224195211 orientation 1 0 0 0 velocity 0 0 0 angularVelocity 0 0 0 force 0 0 0 torque 0 0 0 radius 0.00102491307114372 invMass 110871.596015719 timeStamp 0
BaseParticle id 16 indSpecies 0 position 0.0401805055884826 0.0099951959122017 0.0789237790937314 orientation 1 0 0 0 velocity 0 0 0 angularVelocity 0 0 0 force 0 0 0 torque 0 0 0 radius 0.00114942321303878 invMass 78603.4311738867 timeStamp 0
BaseParticle id 17 indSpecies 0 position 0.0324626619625253 0.00506626339157461 0.09576988434813 orientation 1 0 0 0 velocity 0 0 0 angularVelocity 0 0 0 force 0 0 0 torque 0 0 0 radius 0.000852044541262602 invMass 192972.089652362 timeStamp 0
BaseParticle id 18 indSpecies 0 position 0.0262642771692348 0.0849237541808526 0.0884841543729565 orientation 1 0 0 0 velocity 0 0 0 angularVelocity 0 0 0 force 0 0 0 torque 0 0 0 radius 0.000979792098292429 invMass 126905.252330847 timeStamp 0
BaseParticle id 19 indSpecies 0 position 0.0757689981947011 0.0841023461109937 0.0601846719531485 orientation 1 0 0 0 velocity 0 0 0 angularVelocity 0 0 0 force 0 0 0 torque 0 0 0 radius 0.000993614311299537 invMass 121682.431853184 timeStamp 0
BaseParticle id 20 indSpecies 0 position 0.00911323026836548 0.0444778516474386 0.00351034411833588 orientation 1 0 0 0 velocity 0 0 0 angularVelocity 0 0 0 force 0 0 0 torque 0 0 0 radius 0.000978869490284163 invMass 127264.424392765 timeStamp 0
BaseParticle id 21 indSpecies 0 position 0.0747495385122024 0.084527385714904 0.0432653544999051 orientation 1 0 0 0 velocity 0 0 0 angularVelocity 0 0 0 force 0 0 0 torque 0 0 0 radius 0.000987328034119411 invMass 124021.502797309 timeStamp 0
BaseParticle id 22 indSpecies 0 position 0.0121918775959016 0.00755647597130715 0.0433548083125103 orientation 1 0 0 0 velocity 0 0 0 angularVelocity 0 0 0 force 0 0 0 torque 0 0 0 radius 0.000915351069893011 invMass 155638.958002621 timeStamp 0
BaseParticle id 23 indSpecies 0 position 0.0472578531622348 0.0618409596738955 0.0319048466795079 orientation 1 0 0 0 velocity 0 0 0 angularVelocity 0 0 0 force 0 0 0 torque 0 0 0 radius 0.00108639547377929 invMass 93093.1128252798 timeStamp 0
BaseParticle id 24 indSpecies 0 position 0.0102355983944278 0.0832432083010271 0.0884476968194845 orientation 1 0 0 0 velocity 0 0 0 angularVelocity 0 0 0 force 0 0 0 torque 0 0 0 radius 0.000932279820925407 invMass 147313.498247002 timeStamp 0
BaseParticle id 25 indSpecies 0 position 0.00837098461727521 0.0522019398843852 0.0346442795035948 orientation 1 0 0 0 velocity 0 0 0 angularVelocity 0 0 0 force 0 0 0 torque 0 0 0 radius 0.0010297211817502 invMass 109325.747569367 timeStamp 0
BaseParticle id 26 indSpecies 0 position 0.0559428380281266 0.0700997407826597 0.0962590691668363 orientation 1 0 0 0 velocity 0 0 0 angularVelocity 0 0 0 force 0 0 0 torque 0 0 0 radius 0.00107156121241854 invMass 97013.1128973321 timeStamp 0
BaseParticle id 27 indSpecies 0 position 0.0597098215858361 0.057567957176298 0.0267184714537873 orientation 1 0 0 0 velocity 0 0 0 angularVelocity 0 0 0 force 0 0 0 torque 0 0 0 radius 0.000890566070674443 invMass 168998.542739795 timeStamp 0
BaseParticle id 28 indSpecies 0 position 0.00587385044817452 0.0252225785281299 0.052698124989217 orientation 1 0 0 0 velocity 0 0 0 angularVelocity 0 0 0 force 0 0 0 torque 0 0 0 radius 0.00101496475875093 invMass 114163.823580019 timeStamp 0
BaseParticle id 29 indSpecies 0 position 0.0154171871809129 0.007775785487354 0.0379114581850251 orientation 1 0 0 0 velocity 0 0 0 angularVelocity 0 0 0 force 0 0 0 torque 0 0 0 radius 0.000957019001110919 invMass 136182.001674692 timeStamp 0
BaseParticle id 30 indSpecies 0 position 0.0327630155414687 0.0586293312174926 0.0656877283326465 orientation 1 0 0 0 velocity 0 0 0 angularVelocity 0 0 0 force 0 0 0 torque 0 0 0 radius 0.00103467394025854 invMass 107763.295078253 timeStamp 0
BaseParticle id 31 indSpecies 0 position 0.0758287987896904 0.0523946741107901 0.0919134873040826 orientation 1 0 0 0 velocity 0 0 0 angularVelocity 0 0 0 force 0 0 0 torque 0 0 0 radius 0.000952887115269524 invMass 137961.221641732 timeStamp 0
BaseParticle id 32 indSpecies 0 position 0.0544205111875939 0.0921347505486247 0.019371255562295 orientation 1 0 0 0 velocity 0 0 0 angularVelocity 0 0 0 force 0 0 0 torque 0 0 0 radius 0.00122469309224736 invMass 64982.975039752 timeStamp 0
BaseParticle id 33 indSpecies 0 position 0.0747160042871572 0.0531534103181647 0.0644646338518107 orientation 1 0 0 0 velocity 0 0 0 angularVelocity 0 0 0 force 0 0 0 torque 0 0 0 radius 0.000986137989384284 invMass 124471.042269533 timeStamp 0
BaseParticle id 34 indSpecies 0 position 0.0836178721081299 0.0117204199435931 0.000377548951303996 orientation 1 0 0 0 velocity 0 0 0 angularVelocity 0 0 0 force 0 0 0 torque 0 0 0 radius 0.00106699874755192 invMass 98262.9201177111 timeStamp 0
BaseParticle id 35 indSpecies 0 position 0.0970729528953573 0.0969606445199245 0.09241394354737 orientation 1 0 0 0 velocity 0 0 0 angularVelocity 0 0 0 force 0 0 0 torque 0 0 0 radius 0.000920346471183082 invMass 153118.385294466 timeStamp 0
BaseParticle id 36 indSpecies 0 position 0.0588207174476043 0.0884957535299512 0.0317885071674469 orientation 1 0 0 0 velocity 0 0 0 angularVelocity 0 0 0 force 0 0 0 torque 0 0 0 radius 0.000909969272257931 invMass 158416.791466291 timeStamp 0
BaseParticle id 37 indSpecies 0 position 0.0417646053789513 0.0800067577697274 0.0869167595292286 orientation 1 0 0 0 velocity 0 0 0 angularVelocity 0 0 0 force 0 0 0 torque 0 0 0 radius 0.00118109256517835 invMass 72448.5316701159 timeStamp 0
BaseParticle id 38 indSpecies 0 position 0.00235067689572397 0.0956917095038186 0.0559225935899442 orientation 1 0 0 0 velocity 0 0 0 angularVelocity 0 0 0 force 0 0 0 torque 0 0 0 radius 0.00101514735112312 invMass 114102.231455068 timeStamp 0
BaseParticle id 39 indSpecies 0 position 0.010402804230896 0.0730118187395746 0.022109877856346 orientation 1 0 0 0 velocity 0 0 0 angularVelocity 0 0 0 force 0 0 0 torque 0 0 0 radius 0.000967920642380994 invMass 131632.199807932 timeStamp 0
BaseParticle id 40 indSpecies 0 position 0.0418329746072805 0.0686011585699383 0.0798690657318858 orientation 1 0 0 0 velocity 0 0 0 angularVelocity 0 0 0 force 0 0 0 torque 0 0 0 radius 0.00109921159480634 invMass 89874.7080482805 timeStamp 0
BaseParticle id 41 indSpecies 0 position 0.0935104752019882 0.0486952222430192 0.0594294081819901 orientation 1 0 0 0 velocity 0 0 0 angularVelocity 0 0 0 force 0 0 0 torque 0 0 0 radius 0.000913435981897751 invMass 156619.93856279 timeStamp 0
BaseParticle id 42 indSpecies 0 position 0.0439465037137768 0.0605432332860834 0.077782873830029 orientation 1 0 0 0 velocity 0 0 0 angularVelocity 0 0 0 force 0 0 0 torque 0 0 0 radius 0.0010065857686584 invMass 117038.578173992 timeStamp 0
BaseParticle id 43 indSpecies 0 position 0.0893831915320985 0.0970635949661363 0.0793951490154535 orientation 1 0 0 0 velocity 0 0 0 angularVelocity 0 0 0 force 0 0 0 torque 0 0 0 radius 0.00118681851857753 invMass 71404.9718599272 timeStamp 0
BaseParticle id 44 indSpecies 0 position 0.0276064363982469 0.0539636656139384 0.0392996674968864 orientation 1 0 0 0 velocity 0 0 0 angularVelocity 0 0 0 force 0 0 0 torque 0 0 0 radius 0.000917608839544317 invMass 154492.936951543 timeStamp 0
BaseParticle id 45 indSpecies 0 position 0.0961445872707809 0.0791264746532529 0.0470675132730347 orientation 1 0 0 0 velocity 0 0 0 angularVelocity 0 0 0 force 0 0 0 torque 0 0 0 radius 0.00107935009852309 invMass 94928.0125749644 timeStamp 0
BaseParticle id 46 indSpecies 0 position 0.029246981694133 0.00254601062969675 0.0519682149850128 orientation 1 0 0 0 velocity 0 0 0 angularVelocity 0 0 0 force 0 0 0 torque 0 0 0 radius 0.00100446035655266 invMass 117783.103152314 timeStamp 0
BaseParticle id 47 indSpecies 0 position 0.0242646593374529 0.0213247085722865 0.0293926140019739 orientation 1 0 0 0 velocity 0 0 0 angularVelocity 0 0 0 force 0 0 0 torque 0 0 0 radius 0.00104981765558417 invMass 103166.756777015 timeStamp 0
BaseParticle id 48 indSpecies 0 position 0.0388066255126087 0.00282860956822653 0.0863741846882047 orientation 1 0 0 0 velocity 0 0 0 angularVelocity 0 0 0 force 0 0 0 torque 0 0 0 radius 0.000904749915693281 invMass 161174.280852648 timeStamp 0
BaseParticle id 49 indSpecies 0 position 0.0918470906169647 0.0991142840132916 0.00779305425678096 orientation 1 0 0 0 velocity 0 0 0 angularVelocity 0 0 0 force 0 0 0 torque 0 0 0 radius 0.000976296273629873 invMass 128273.36861576 timeStamp 0
BaseParticle id 50 indSpecies 0 position 0.0912038071162963 0.0513815605534412 0.0381956555524882 orientation 1 0 0 0 velocity 0 0 0 angularVelocity 0 0 0 force 0 0 0 torque 0 0 0 radius 0.000893082714269211 invMass 167573.887234939 timeStamp 0
BaseParticle id 51 indSpecies 0 position 0.00720295011326395 0.0691402485881557 0.0339532971997249 orientation 1 0 0 0 velocity 0 0 0 angularVelocity 0 0 0 force 0 0 0 torque 0 0 0 radius 0.000952917722665019 invMass 137947.928265152 timeStamp 0
BaseParticle id 52 indSpecies 0 position 0.0551819820374418 0.0871216303788855 0.0846690296338228 orientation 1 0 0 0 velocity 0 0 0 angularVelocity 0 0 0 force 0 0 0 torque 0 0 0 radius 0.00102591835951561 invMass 110545.98898009 timeStamp 0
BaseParticle id 53 indSpecies 0 position 0.0429588166596752 0.0380378273892795 0.0498445376289594 orientation 1 0 0 0 velocity 0 0 0 angularVelocity 0 0 0 force 0 0 0 torque 0 0 0 radius 0.000850462068698702 invMass 194051.296880394 timeStamp 0
BaseParticle id 54 indSpecies 0 position 0.00326430303671927 0.071450651184236 0.0231899534136151 orientation 1 0 0 0 velocity 0 0 0 angularVelocity 0 0 0 force 0 0 0 torque 0 0 0 radius 0.000982148177158247 invMass 125994.141072309 timeStamp 0
BaseParticle id 55 indSpecies 0 position 0.0329004984042603 0.0937884705199036 0.0231121225067302 orientation 1 0 0 0 velocity 0 0 0 angularVelocity 0 0 0 force 0 0 0 torque 0 0 0 radius 0.00093618542624855 invMass 145477.479068353 timeStamp 0
BaseParticle id 56 indSpecies 0 position 0.0813237801368127 0.0483560759123824 0.010164483906548 orientation 1 0 0 0 velocity 0 0 0 angularVelocity 0 0 0 force 0 0 0 torque 0 0 0 radius 0.00102791513152071 invMass 109903.017730136 timeStamp 0
BaseParticle id 57 indSpecies 0 position 0.0965816446611829 0.0728241943076028 0.000901692732328829 orientation 1 0 0 0 velocity 0 0 0 angularVelocity 0 0 0 force 0 0 0 torque 0 0 0 radius 0.00107236058790292 invMass 96796.3235703671 timeStamp 0
BaseParticle id 58 indSpecies 0 position 0.0654154038378825 0.0629404888833496 0.077991357466214 orientation 1 0 0 0 velocity 0 0 0 angularVelocity 0 0 0 force 0 0 0 torque 0 0 0 radius 0.00109397729401617 invMass 91170.9480096362 timeStamp 0
BaseParticle id 59 indSpecies 0 position 0.0424296728871486 0.0177141948438117 0.0840283417291675 orientation 1 0 0 0 velocity 0 0 0 angularVelocity 0 0 0 force 0 0 0 torque 0 0 0 radius 0.0010917185776722 invMass 91738.005308586 timeStamp 0
BaseParticle id 60 indSpecies 0 position 0.0220323394778815 0.0250499933724757 0.00219684745911803 orientation 1 0 0 0 velocity 0 0 0 angularVelocity 0 0 0 force 0 0 0 torque 0 0 0 radius 0.000832148080330743 invMass 207147.429303181 timeStamp 0
BaseParticle id 61 indSpecies 0 position 0.0426595558946398 0.0212833483505218 0.0940962143297343 orientation 1 0 0 0 velocity 0 0 0 angularVelocity 0 0 0 force 0 0 0 torque 0 0 0 radius 0.000933535680370974 invMass 146719.767503964 timeStamp 0
BaseParticle id 62 indSpecies 0 position 0.000838929600232352 0.0097495225167372 0.044259318388757 orientation 1 0 0 0 velocity 0 0 0 angularVelocity 0 0 0 force 0 0 0 torque 0 0 0 radius 0.00114001067423604 invMass 80566.5267947679 timeStamp 0
BaseParticle id 63 indSpecies 0 position 0.0377591434514531 0.0784028301216636 0.0737540905608292 orientation 1 0 0 0 velocity 0 0 0 angularVelocity 0 0 0 force 0 0 0 torque 0 0 0 radius 0.000947857665293721 invMass 140169.013028721 timeStamp 0
BaseParticle id 64 indSpecies 0 position 0.0111988612346362 0.0133462469900528 0.0335512118101574 orientation 1 0 0 0 velocity 0 0 0 angularVelocity 0 0 0 force 0 0 0 torque 0 0 0 radius 0.00112245928883434 invMass 84405.2771472318 timeStamp 0
BaseParticle id 65 indSpecies 0 position 0.0396378131214177 0.00145871201394245 0.0497256297155045 orientation 1 0 0 0 velocity 0 0 0 angularVelocity 0 0 0 force 0 0 0 torque 0 0 0 radius 0.0010209121049622 invMass 112180.232350797 timeStamp 0
BaseParticle id 66 indSpecies 0 position 0.0904574840418459 0.0574903735355564 0.0990918241449708 orientation 1 0 0 0 velocity 0 0 0 angularVelocity 0 0 0 force 0 0 0 torque 0 0 0 radius 0.00105109467837015 invMass 102791.187471664 timeStamp 0
BaseParticle id 67 indSpecies 0 position 0.0857333733833084 0.024645022093649 0.0245810673343194 orientation 1 0 0 0 velocity 0 0 0 angularVelocity 0 0 0 force 0 0 0 torque 0 0 0 radius 0.0010400668279059 invMass 106095.669980679 timeStamp 0
BaseParticle id 68 indSpecies 0 position 0.0879528883956811 0.0795857600126548 0.0434448583578273 orientation 1 0 0 0 velocity 0 0 0 angularVelocity 0 0 0 force 0 0 0 torque 0 0 0 radius 0.000947868040178373 invMass 140164.410421512 timeStamp 0
BaseParticle id 69 indSpecies 0 position 0.0764502656865397 0.0507433782790384 0.0714202909996544 orientation 1 0 0 0 velocity 0 0 0 angularVelocity 0 0 0 force 0 0 0 torque 0 0 0 radius 0.0011259102914261 invMass 83631.527391006 timeStamp 0
BaseParticle id 70 indSpecies 0 position 0.0891209776614597 0.0903208902195833 0.0921103616318569 orientation 1 0 0 0 velocity 0 0 0 angularVelocity 0 0 0 force 0 0 0 torque 0 0 0 radius 0.000876938412421115 invMass 177000.345264193 timeStamp 0
BaseParticle id 71 indSpecies 0 position 0.0302552368210114 0.00694192675227119 0.0107153382983847 orientation 1 0 0 0 velocity 0 0 0 angularVelocity 0 0 0 force 0 0 0 torque 0 0 0 radius 0.00111960390867499 invMass 85052.7141516167 timeStamp 0
BaseParticle id 72 indSpecies 0 position 0.0138253928033399 0.0435838821869494 0.0771512816872901 orientation 1 0 0 0 velocity 0 0 0 angularVelocity 0 0 0 force 0 0 0 torque 0 0 0 radius 0.000970022813965625 invMass 130778.25836401 timeStamp 0
BaseParticle id 73 indSpecies 0 position 0.0395847791437201 0.0985119469477684 0.0755134920817674 orientation 1 0 0 0 velocity 0 0 0 angularVelocity 0 0 0 force 0 0 0 torque 0 0 0 radius 0.00106760524777683 invMass 98095.5474864579 timeStamp 0
BaseParticle id 74 indSpecies 0 position 0.0671837767891737 0.0753533275096181 0.0485605016829814 orientation 1 0 0 0 velocity 0 0 0 angularVelocity 0 0 0 force 0 0 0 torque 0 0 0 radius 0.000959292175412879 invMass 135216.188162743 timeStamp 0
BaseParticle id 75 indSpecies 0 position 0.031421760347279 0.0058011082878326 0.0450302669359089 orientation 1 0 0 0 velocity 0 0 0 angularVelocity 0 0 0 force 0 0 0 torque 0 0 0 radius 0.000825250174793032 invMass 212385.332179758 timeStamp 0
BaseParticle id 76 indSpecies 0 position 0.0246774849252054 0.0513598813197018 0.076014838203774 orientation 1 0 0 0 velocity 0 0 0 angularVelocity 0 0 0 force 0 0 0 torque 0 0 0 radius 0.00102904346885903 invMass 109541.89084311 timeStamp 0
BaseParticle id 77 indSpecies 0 position 0.0539767896253832 0.086017984537391 0.0723647109490217 orientation 1 0 0 0 velocity 0 0 0 angularVelocity 0 0 0 force 0 0 0 torque 0 0 0 radius 0.000926475984930411 invMass 150099.37901859 timeStamp 0
BaseParticle id 78 indSpecies 0 position 0.0946795410526176 0.0412491670425524 0.0229513503397337 orientation 1 0 0 0 velocity 0 0 0 angularVelocity 0 0 0 force 0 0 0 torque 0 0 0 radius 0.000990659044011301 invMass 122774.668156023 timeStamp 0
BaseParticle id 79 indSpecies 0 position 0.0716686687696086 0.0525518482992874 0.0107503406603352 orientation 1 0 0 0 velocity 0 0 0 angularVelocity 0 0 0 force 0 0 0 torque 0 0 0 radius 0.000841874769288252 invMass 200050.16452235 timeStamp 0
BaseParticle id 80 indSpecies 0 position 0.048650363787403 0.0669719776446261 0.0930234140781468 orientation 1 0 0 0 velocity 0 0 0 angularVelocity 0 0 0 force 0 0 0 torque 0 0 0 radius 0.000819331373136012 invMass 217021.439888887 timeStamp 0
BaseParticle id 81 indSpecies 0 position 0.0508680276098959 0.00565702085787705 0.0693145474704779 orientation 1 0 0 0 velocity 0 0 0 angularVelocity 0 0 0 force 0 0 0 torque 0 0 0 radius 0.000927277662279852 invMass 149710.410509375 timeStamp 0
BaseParticle id 82 indSpecies 0 position 0.009146822142278 0.0922581247126142 0.0930748260644499 orientation 1 0 0 0 velocity 0 0 0 angularVelocity 0 0 0 force 0 0 0 torque 0 0 0 radius 0.000922118407453017 invMass 152237.386737367 timeStamp 0
BaseParticle id 83 indSpecies 0 position 0.0147158287328521 0.0674126155046629 0.086778180965429 orientation 1 0 0 0 velocity 0 0 0 angularVelocity 0 0 0 force 0 0 0 torque 0 0 0 radius 0.000861341645178874 invMass 186790.617791449 timeStamp 0
BaseParticle id 84 indSpecies 0 position 0.0795493101891602 0.010277583347375 0.0216992980598479 orientation 1 0 0 0 velocity 0 0 0 angularVelocity 0 0 0 force 0 0 0 torque 0 0 0 radius 0.00116786923394913 invMass 74937.4209128179 timeStamp 0
BaseParticle id 85 indSpecies 0 position 0.0942253700511294 0.0168032741948932 0.0627992531631149 orientation 1 0 0 0 velocity 0 0 0 angularVelocity 0 0 0 force 0 0 0 torque 0 0 0 radius 0.00108150682336777 invMass 94361.2322455811 timeStamp 0
BaseParticle id 86 indSpecies 0 position 0.022980958853866 0.0691273919594219 0.0481341577618065 orientation 1 0 0 0 velocity 0 0 0 angularVelocity 0 0 0 force 0 0 0 torque 0 0 0 radius 0.00107248632483817 invMass 96762.2827272957 timeStamp 0
BaseParticle id 87 indSpecies 0 position 0.0235687481019937 0.0658886193615491 0.00796576812121479 orientation 1 0 0 0 velocity 0 0 0 angularVelocity 0 0 0 force 0 0 0 torque 0 0 0 radius 0.000986922084535757 invMass 124174.606644152 timeStamp 0
BaseParticle id 88 indSpecies 0 position 0.0689548411695707 0.0208204010307599 0.0714064499629602 orientation 1 0 0 0 velocity 0 0 0 angularVelocity 0 0 0 force 0 0 0 torque 0 0 0 radius 0.000984167796150097 invMass 125220.070821713 timeStamp 0
BaseParticle id 89 indSpecies 0 position 0.0984752233154371 0.090121591100356 0.0810711832893349 orientation 1 0 0 0 velocity 0 0 0 angularVelocity 0 0 0 force 0 0 0 torque 0 0 0 radius 0.00113577116094198 invMass 81472.094969073 timeStamp 0
BaseParticle id 90 indSpecies 0 position 0.0286495233619124 0.0268494474451529 0.011470755085842 orientation 1 0 0 0 velocity 0 0 0 angularVelocity 0 0 0 force 0 0 0 torque 0 0 0 radius 0.000998741322218799 invMass 119818.075132256 timeStamp 0
BaseParticle id 91 indSpecies 0 position 0.0858094801327126 0.0857132481544155 0.0305070799491302 orientation 1 0 0 0 velocity 0 0 0 angularVelocity 0 0 0 force 0 0 0 torque 0 0 0 radius 0.000844571933989143 invMass 198139.680898152 timeStamp 0
BaseParticle id 92 indSpecies 0 position 0.0967466172792515 0.0720422967597448 0.0332382033269496 orientation 1 0 0 0 velocity 0 0 0 angularVelocity 0 0 0 force 0 0 0 torque 0 0 0 radius 0.00108363948083993 invMass 93805.2048965401 timeStamp 0
BaseParticle id 93 indSpecies 0 position 0.0784069091282721 0.0197375197711051 0.0917397117319147 orientation 1 0 0 0 velocity 0 0 0 angularVelocity 0 0 0 force 0 0 0 torque 0 0 0 radius 0.00118396403540239 invMass 71922.6803983414 timeStamp 0
BaseParticle id 94 indSpecies 0 position 0.0920831097363652 0.00127482032284623 0.0705311519368262 orientation 1 0 0 0 velocity 0 0 0 angularVelocity 0 0 0 force 0 0 0 torque 0 0 0 radius 0.0010281511824325 invMass 109827.337949823 timeStamp 0
BaseParticle id 95 indSpecies 0 position 0.0601588660290848 0.0523861444067339 0.0389925614567543 orientation 1 0 0 0 velocity 0 0 0 angularVelocity 0 0 0 force 0 0 0 torque 0 0 0 radius 0.000987471152211413 invMass 123967.585834585 timeStamp 0
BaseParticle id 96 indSpecies 0 position 0.0646791353219383 0.0359738514423614 0.0333067357229937 orientation 1 0 0 0 velocity 0 0 0 angularVelocity 0 0 0 force 0 0 0 torque 0 0 0 radius 0.000947430215207431 invMass 140358.817908248 timeStamp 0
BaseParticle id 97 indSpecies 0 position 0.0441390457152025 0.00016523376091826 0.0826561608513294 orientation 1 0 0 0 velocity 0 0 0 angularVelocity 0 0 0 force 0 0 0 torque 0 0 0 radius 0.00094714282619543 invMass 140486.622780916 timeStamp 0
BaseParticle id 98 indSpecies 0 position 0.0455495300278538 0.0406859393783976 0.00857315658724573 orientation 1 0 0 0 velocity 0 0 0 angularVelocity 0 0 0 force 0 0 0 torque 0 0 0 radius 0.000813691013940028 invMass 221565.856206186 timeStamp 0
BaseParticle id 99 indSpecies 0 position 0.0675596889410543 0.0716687406677113 0.093205480563263 orientation 1 0 0 0 velocity 0 0 0 angularVelocity 0 0 0 force 0 0 0 torque 0 0 0 radius 0.000943000951973865 invMass 142345.912748275 timeStamp 0
BaseParticle id 100 indSpecies 0 position 0.000977054703070745 0.0665931275425543 0.0266563164753315 orientation 1 0 0 0 velocity 0 0 0 angularVelocity 0 0 0 force 0 0 0 torque 0 0 0 radius 0.000945553398231967 invMass 141196.267278362 timeStamp 0
BaseParticle id 101 indSpecies 0 position 0.0105986392958102 0.0583995338916783 0.0159315271154684 orientation 1 0 0 0 velocity 0 0 0 angularVelocity 0 0 0 force 0 0 0 torque 0 0 0 radius 0.000860304545950877 invMass 187466.962107017 timeStamp 0
BaseParticle id 102 indSpecies 0 position 0.013952367646664 0.0218292682228337 0.00184999294406734 orientation 1 0 0 0 velocity 0 0 0 angularVelocity 0 0 0 force 0 0 0 torque 0 0 0 radius 0.00100355075339008 invMass 118103.663976287 timeStamp 0
BaseParticle id 103 indSpecies 0 position 0.0901226403283676 0.017405660341116 0.0591531655200262 orientation 1 0 0 0 velocity 0 0 0 angularVelocity 0 0 0 force 0 0 0 torque 0 0 0 radius 0.00106536151727942 invMass 98716.643256175 timeStamp 0
BaseParticle id 104 indSpecies 0 position 0.0354076974695477 0.0899347657431525 0.0482796406855065 orientation 1 0 0 0 velocity 0 0 0 angularVelocity 0 0 0 force 0 0 0 torque 0 0 0 radius 0.000984694786357446 invMass 125019.132088752 timeStamp 0
BaseParticle id 105 indSpecies 0 position 0.0789416384148024 0.039921243451609 0.0975595579505344 orientation 1 0 0 0 velocity 0 0 0 angularVelocity 0 0 0 force 0 0 0 torque 0 0 0 radius 0.0010029693716423 invMass 118309.163143941 timeStamp 0
BaseParticle id 106 indSpecies 0 position 0.0459180453364569 0.00489701050808931 0.0667317665491889 orientation 1 0 0 0 velocity 0 0 0 angularVelocity 0 0 0 force 0 0 0 torque 0 0 0 radius 0.00104827424942356 invMass 103623.114718666 timeStamp 0
BaseParticle id 107 indSpecies 0 position 0.091463232514017 0.0357483507732411 0.00694298110255693 orientation 1 0 0 0 velocity 0 0 0 angularVelocity 0 0 0 force 0 0 0 torque 0 0 0 radius 0.0010045100595644 invMass 117765.620344917 timeStamp 0
BaseParticle id 108 indSpecies 0 position 0.0197156201864448 0.0689581509968656 0.0712477112456712 orientation 1 0 0 0 velocity 0 0 0 angularVelocity 0 0 0 force 0 0 0 torque 0 0 0 radius 0.00107590434886936 invMass 95843.0015351551 timeStamp 0