MercuryDPM 0.14 name InsertionBoundarySelfTest revision 5628 repository https://svn.mercurydpm.org/SourceCode/Branches/Timo
dataFile    fileType ONE_FILE saveCount 10 counter 22 lastSavedTimeStep 201
fStatFile   fileType ONE_FILE saveCount 20 counter 12 lastSavedTimeStep 201
eneFile     fileType ONE_FILE saveCount 20 counter 12 lastSavedTimeStep 201
restartFile fileType ONE_FILE saveCount 20 counter 12 lastSavedTimeStep 201
statFile    fileType ONE_FILE saveCount 20 counter 0
interactionFile fileType NO_FILE saveCount 0 counter 0
xMin 0 xMax 1 yMin 0 yMax 1 zMin 0 zMax 1
timeStep 0.0001 time 0.0200999999999999 ntimeSteps 201 timeMax 0.02
systemDimensions 3 particleDimensions 3 gravity 0 0 0 writeVTK 0 NO_FILE NO_FILE 0 0 0 0 random  0 1103515245 12345 1073741824 607 273 784607267
Species 1
LinearViscoelasticSpecies id 0 density 2000 stiffness 10000 dissipation 0
Walls 0
Boundaries 1
CubeInsertionBoundary id 0 maxFailed 1 massInserted 262.65705087857 volumeInserted 0.131328525439285 numberOfParticlesInserted 559 isActivated 1 distribution 0 initialVolume 0 samplingInterval 0 variableCumulativeVolumeFlowRate 0 particleToCopy BaseParticle id 0 indSpecies 0 position 0 0 0 orientation 1 0 0 0 velocity 0 0 0 angularVelocity 0 0 0 force 0 0 0 torque 0 0 0 radius 1 invMass 1 posMin 0 0 0 posMax 1 1 1 velMin 1 0 0 velMax 1 0 0 radMin 0.025 radMax 0.05
Particles 559
BaseParticle id 0 indSpecies 0 position 0.482818009347822 0.451551026244135 0.84762122589385 orientation 1 0 0 0 velocity 1 0 0 angularVelocity 0 0 0 force 0 0 0 torque 0 0 0 radius 0.0357408369791314 invMass 2.61449153013946
BaseParticle id 1 indSpecies 0 position 0.433787151301476 0.0993150145753146 0.771077505526061 orientation 1 0 0 0 velocity 1 0 0 angularVelocity 0 0 0 force 0 0 0 torque 0 0 0 radius 0.0471624199560262 invMass 1.13787132123194
BaseParticle id 2 indSpecies 0 position 0.615721126910557 0.926644036614668 0.072714161991408 orientation 1 0 0 0 velocity 1 0 0 angularVelocity 0 0 0 force 0 0 0 torque 0 0 0 radius 0.0335684616038869 invMass 3.15563728863317
BaseParticle id 3 indSpecies 0 position 0.213444608530545 0.803075776618835 0.214465732486485 orientation 1 0 0 0 velocity 1 0 0 angularVelocity 0 0 0 force 0 0 0 torque 0 0 0 radius 0.036341622577662 invMass 2.48695801642126
BaseParticle id 4 indSpecies 0 position 0.311641582463268 0.651623650778435 0.306274980952707 orientation 1 0 0 0 velocity 1 0 0 angularVelocity 0 0 0 force 0 0 0 torque 0 0 0 radius 0.0384650383950537 invMass 2.09740782627205
BaseParticle id 5 indSpecies 0 position 0.228331886484908 0.969839190161005 0.537878006195763 orientation 1 0 0 0 velocity 1 0 0 angularVelocity 0 0 0 force 0 0 0 torque 0 0 0 radius 0.0294906547716906 invMass 4.65401897416336
BaseParticle id 6 indSpecies 0 position 0.98559865124002 0.187199103471638 0.751426060915528 orientation 1 0 0 0 velocity 1 0 0 angularVelocity 0 0 0 force 0 0 0 torque 0 0 0 radius 0.0392950905120977 invMass 1.96728153039954
BaseParticle id 7 indSpecies 0 position 0.148699160061123 0.306166582455703 0.591826113321049 orientation 1 0 0 0 velocity 1 0 0 angularVelocity 0 0 0 force 0 0 0 torque 0 0 0 radius 0.035023624021538 invMass 2.77842161361578
BaseParticle id 8 indSpecies 0 position 0.792737262050864 0.846877715692969 0.788350858922721 orientation 1 0 0 0 velocity 1 0 0 angularVelocity 0 0 0 force 0 0 0 torque 0 0 0 radius 0.0396022393232191 invMass 1.92186183790562
BaseParticle id 9 indSpecies 0 position 0.910366296386003 0.611222965073564 0.680974906607554 orientation 1 0 0 0 velocity 1 0 0 angularVelocity 0 0 0 force 0 0 0 torque 0 0 0 radius 0.0331021793344038 invMass 3.29087687197214
BaseParticle id 10 indSpecies 0 position 0.915757810309753 0.425251628807512 0.7872364187732 orientation 1 0 0 0 velocity 1 0 0 angularVelocity 0 0 0 force 0 0 0 torque 0 0 0 radius 0.0278030670920358 invMass 5.55396670515035
BaseParticle id 11 indSpecies 0 position 0.460465642660421 0.0549294957379536 0.0311985714070513 orientation 1 0 0 0 velocity 1 0 0 angularVelocity 0 0 0 force 0 0 0 torque 0 0 0 radius 0.030804044515077 invMass 4.08374079042328
BaseParticle id 12 indSpecies 0 position 0.83659889703933 0.772353886838673 0.455273494631729 orientation 1 0 0 0 velocity 1 0 0 angularVelocity 0 0 0 force 0 0 0 torque 0 0 0 radius 0.0490258776359019 invMass 1.01299024755201
BaseParticle id 13 indSpecies 0 position 0.830699480762052 0.967712630547851 0.58317498808431 orientation 1 0 0 0 velocity 1 0 0 angularVelocity 0 0 0 force 0 0 0 torque 0 0 0 radius 0.0262972885963532 invMass 6.56369628979631
BaseParticle id 14 indSpecies 0 position 0.276943308509006 0.332247916299619 0.0975970969557789 orientation 1 0 0 0 velocity 1 0 0 angularVelocity 0 0 0 force 0 0 0 torque 0 0 0 radius 0.0258843930197094 invMass 6.88283627457538
BaseParticle id 15 indSpecies 0 position 0.71096367741845 0.48267025548716 0.76193224195211 orientation 1 0 0 0 velocity 1 0 0 angularVelocity 0 0 0 force 0 0 0 torque 0 0 0 radius 0.0372205294089201 invMass 2.31490811229701
BaseParticle id 16 indSpecies 0 position 0.450958077841475 0.324626619625253 0.0506626339157461 orientation 1 0 0 0 velocity 1 0 0 angularVelocity 0 0 0 force 0 0 0 torque 0 0 0 radius 0.0479373636441889 invMass 1.08357495163304
BaseParticle id 17 indSpecies 0 position 0.464340212788114 0.262642771692348 0.849237541808526 orientation 1 0 0 0 velocity 1 0 0 angularVelocity 0 0 0 force 0 0 0 torque 0 0 0 radius 0.0406458896904756 invMass 1.77758956628669
BaseParticle id 18 indSpecies 0 position 0.645728522775945 0.75768998194701 0.841023461109937 orientation 1 0 0 0 velocity 1 0 0 angularVelocity 0 0 0 force 0 0 0 torque 0 0 0 radius 0.0490604133121107 invMass 1.01085249454321
BaseParticle id 19 indSpecies 0 position 0.0770846078385748 0.0911323026836548 0.444778516474386 orientation 1 0 0 0 velocity 1 0 0 angularVelocity 0 0 0 force 0 0 0 torque 0 0 0 radius 0.0292781563901546 invMass 4.75609166514405
BaseParticle id 20 indSpecies 0 position 0.272319567601828 0.747495385122024 0.84527385714904 orientation 1 0 0 0 velocity 1 0 0 angularVelocity 0 0 0 force 0 0 0 torque 0 0 0 radius 0.0357378819624541 invMass 2.61514012802668
BaseParticle id 21 indSpecies 0 position 0.803926210567422 0.121918775959016 0.0755647597130715 orientation 1 0 0 0 velocity 1 0 0 angularVelocity 0 0 0 force 0 0 0 torque 0 0 0 radius 0.0282747402291049 invMass 5.28062739316352
BaseParticle id 22 indSpecies 0 position 0.461164535990761 0.472578531622348 0.618409596738955 orientation 1 0 0 0 velocity 1 0 0 angularVelocity 0 0 0 force 0 0 0 torque 0 0 0 radius 0.0348473261018774 invMass 2.82080468647121
BaseParticle id 23 indSpecies 0 position 0.884861215590626 0.102355983944278 0.832432083010271 orientation 1 0 0 0 velocity 1 0 0 angularVelocity 0 0 0 force 0 0 0 torque 0 0 0 radius 0.0295436967354792 invMass 4.6289968480696
BaseParticle id 24 indSpecies 0 position 0.554517348246165 0.0837098461727521 0.522019398843852 orientation 1 0 0 0 velocity 1 0 0 angularVelocity 0 0 0 force 0 0 0 torque 0 0 0 radius 0.0436838451598921 invMass 1.43192020721095
BaseParticle id 25 indSpecies 0 position 0.758148986605786 0.559428380281266 0.700997407826597 orientation 1 0 0 0 velocity 1 0 0 angularVelocity 0 0 0 force 0 0 0 torque 0 0 0 radius 0.0477877573363597 invMass 1.09378369714879
BaseParticle id 26 indSpecies 0 position 0.456748553592012 0.597098215858361 0.575679571762979 orientation 1 0 0 0 velocity 1 0 0 angularVelocity 0 0 0 force 0 0 0 torque 0 0 0 radius 0.0491628904601905 invMass 1.00454447415959
BaseParticle id 27 indSpecies 0 position 0.901635907216334 0.0587385044817452 0.252225785281299 orientation 1 0 0 0 velocity 1 0 0 angularVelocity 0 0 0 force 0 0 0 torque 0 0 0 radius 0.0459212755822378 invMass 1.23264939078358
BaseParticle id 28 indSpecies 0 position 0.290183332944116 0.154171871809129 0.07775785487354 orientation 1 0 0 0 velocity 1 0 0 angularVelocity 0 0 0 force 0 0 0 torque 0 0 0 radius 0.0391823408993126 invMass 1.98431337004363
BaseParticle id 29 indSpecies 0 position 0.358039195781535 0.327630155414687 0.586293312174926 orientation 1 0 0 0 velocity 1 0 0 angularVelocity 0 0 0 force 0 0 0 torque 0 0 0 radius 0.038267325155188 invMass 2.13008569270861
BaseParticle id 30 indSpecies 0 position 0.251989321082838 0.758287987896904 0.523946741107901 orientation 1 0 0 0 velocity 1 0 0 angularVelocity 0 0 0 force 0 0 0 torque 0 0 0 radius 0.0255415855669029 invMass 7.16370731172534
BaseParticle id 31 indSpecies 0 position 0.171729742855083 0.544205111875939 0.921347505486247 orientation 1 0 0 0 velocity 1 0 0 angularVelocity 0 0 0 force 0 0 0 torque 0 0 0 radius 0.0398210816412968 invMass 1.89035007067698
BaseParticle id 32 indSpecies 0 position 0.559809540342715 0.747160042871572 0.531534103181647 orientation 1 0 0 0 velocity 1 0 0 angularVelocity 0 0 0 force 0 0 0 torque 0 0 0 radius 0.0385982773838581 invMass 2.07576233124092
BaseParticle id 33 indSpecies 0 position 0.925490531674127 0.836178721081299 0.117204199435931 orientation 1 0 0 0 velocity 1 0 0 angularVelocity 0 0 0 force 0 0 0 torque 0 0 0 radius 0.0312328090134703 invMass 3.9178540957741
BaseParticle id 34 indSpecies 0 position 0.178523266987386 0.970729528953573 0.969606445199245 orientation 1 0 0 0 velocity 1 0 0 angularVelocity 0 0 0 force 0 0 0 torque 0 0 0 radius 0.0356793590489036 invMass 2.62802966360566
BaseParticle id 35 indSpecies 0 position 0.589164710520611 0.588207174476043 0.884957535299512 orientation 1 0 0 0 velocity 1 0 0 angularVelocity 0 0 0 force 0 0 0 torque 0 0 0 radius 0.0433434585404178 invMass 1.46592147769382
BaseParticle id 36 indSpecies 0 position 0.137705129908671 0.417646053789513 0.800067577697274 orientation 1 0 0 0 velocity 1 0 0 angularVelocity 0 0 0 force 0 0 0 torque 0 0 0 radius 0.036161400530337 invMass 2.52432732259007
BaseParticle id 37 indSpecies 0 position 0.47804487871188 0.0235067689572397 0.956917095038186 orientation 1 0 0 0 velocity 1 0 0 angularVelocity 0 0 0 force 0 0 0 torque 0 0 0 radius 0.0445980749376136 invMass 1.34565291418287
BaseParticle id 38 indSpecies 0 position 0.173984927428898 0.10402804230896 0.730118187395746 orientation 1 0 0 0 velocity 1 0 0 angularVelocity 0 0 0 force 0 0 0 torque 0 0 0 radius 0.0435962247489055 invMass 1.44057126146277
BaseParticle id 39 indSpecies 0 position 0.0509774744967214 0.418329746072805 0.686011585699383 orientation 1 0 0 0 velocity 1 0 0 angularVelocity 0 0 0 force 0 0 0 torque 0 0 0 radius 0.0273285651324982 invMass 5.84831700315037
BaseParticle id 40 indSpecies 0 position 0.732188435055138 0.128010361336162 0.439465037137768 orientation 1 0 0 0 velocity 1 0 0 angularVelocity 0 0 0 force 0 0 0 torque 0 0 0 radius 0.0411683974637013 invMass 1.71076166349933
BaseParticle id 41 indSpecies 0 position 1.01520420004129 0.684156378093961 0.893831915320985 orientation 1 0 0 0 velocity 1 0 0 angularVelocity 0 0 0 force 0 0 0 torque 0 0 0 radius 0.0335642693950196 invMass 3.15681986253601
BaseParticle id 42 indSpecies 0 position 0.472537240970377 0.833900956591683 0.276064363982468 orientation 1 0 0 0 velocity 1 0 0 angularVelocity 0 0 0 force 0 0 0 torque 0 0 0 radius 0.0497013262475828 invMass 0.972248902936772
BaseParticle id 43 indSpecies 0 position 0.897292337941663 0.169700750923063 0.961445872707809 orientation 1 0 0 0 velocity 1 0 0 angularVelocity 0 0 0 force 0 0 0 torque 0 0 0 radius 0.0408754244531734 invMass 1.74781140421347
BaseParticle id 44 indSpecies 0 position 0.392486540700785 0.6034812148628 0.29246981694133 orientation 1 0 0 0 velocity 1 0 0 angularVelocity 0 0 0 force 0 0 0 torque 0 0 0 radius 0.0463716878123845 invMass 1.19707864895814
BaseParticle id 45 indSpecies 0 position 0.364772310606414 0.190150813022488 0.242646593374529 orientation 1 0 0 0 velocity 1 0 0 angularVelocity 0 0 0 force 0 0 0 torque 0 0 0 radius 0.0496872490042008 invMass 0.973075501071151
BaseParticle id 46 indSpecies 0 position 0.0757559420766726 0.166009553553528 0.388066255126087 orientation 1 0 0 0 velocity 1 0 0 angularVelocity 0 0 0 force 0 0 0 torque 0 0 0 radius 0.0429475689372536 invMass 1.50683478979285
BaseParticle id 47 indSpecies 0 position 0.57772776756647 0.698103582767673 0.918470906169646 orientation 1 0 0 0 velocity 1 0 0 angularVelocity 0 0 0 force 0 0 0 torque 0 0 0 radius 0.0251400708452425 invMass 7.51245534343781
BaseParticle id 48 indSpecies 0 position 0.616129184033599 0.183183245190249 0.912038071162963 orientation 1 0 0 0 velocity 1 0 0 angularVelocity 0 0 0 force 0 0 0 torque 0 0 0 radius 0.0275581294181215 invMass 5.70337843295514
BaseParticle id 49 indSpecies 0 position 0.901592285929625 0.331543695804157 0.0720295011326395 orientation 1 0 0 0 velocity 1 0 0 angularVelocity 0 0 0 force 0 0 0 torque 0 0 0 radius 0.0299782302649894 invMass 4.43060896223809
BaseParticle id 50 indSpecies 0 position 0.412304413586569 0.504512335635245 0.210314038013747 orientation 1 0 0 0 velocity 1 0 0 angularVelocity 0 0 0 force 0 0 0 torque 0 0 0 radius 0.049222464580813 invMass 1.00090147580696
BaseParticle id 51 indSpecies 0 position 0.365568375340132 0.760633111222989 0.895836357124302 orientation 1 0 0 0 velocity 1 0 0 angularVelocity 0 0 0 force 0 0 0 torque 0 0 0 radius 0.0268839465203844 invMass 6.14330852409282
BaseParticle id 52 indSpecies 0 position 0.302136930821334 0.656577938556133 0.429913051957346 orientation 1 0 0 0 velocity 1 0 0 angularVelocity 0 0 0 force 0 0 0 torque 0 0 0 radius 0.0373433222879252 invMass 2.2921473709014
BaseParticle id 53 indSpecies 0 position 0.640971977132396 0.149347147765246 0.537468226125959 orientation 1 0 0 0 velocity 1 0 0 angularVelocity 0 0 0 force 0 0 0 torque 0 0 0 radius 0.0392534087512145 invMass 1.97355514058928
BaseParticle id 54 indSpecies 0 position 0.935726233352228 0.719495214783125 0.957208542193092 orientation 1 0 0 0 velocity 1 0 0 angularVelocity 0 0 0 force 0 0 0 torque 0 0 0 radius 0.040413885316426 invMass 1.808379523711
BaseParticle id 55 indSpecies 0 position 0.271419934209974 0.611489275832205 0.691056287203863 orientation 1 0 0 0 velocity 1 0 0 angularVelocity 0 0 0 force 0 0 0 torque 0 0 0 radius 0.0450333960633414 invMass 1.30700514523101
BaseParticle id 56 indSpecies 0 position 1.01340680987257 0.229911934370257 0.849068330741424 orientation 1 0 0 0 velocity 1 0 0 angularVelocity 0 0 0 force 0 0 0 torque 0 0 0 radius 0.0460070854322919 invMass 1.22576504036476
BaseParticle id 57 indSpecies 0 position 0.718831976671857 0.69685427872757 0.863293279089692 orientation 1 0 0 0 velocity 1 0 0 angularVelocity 0 0 0 force 0 0 0 torque 0 0 0 radius 0.0255492118647795 invMass 7.15729424580527
BaseParticle id 58 indSpecies 0 position 0.0835802139867289 0.507823089596049 0.654179626466539 orientation 1 0 0 0 velocity 1 0 0 angularVelocity 0 0 0 force 0 0 0 torque 0 0 0 radius 0.0485240535824336 invMass 1.04474469403646
BaseParticle id 59 indSpecies 0 position 0.75754090560829 0.935611102790003 0.30934741319218 orientation 1 0 0 0 velocity 1 0 0 angularVelocity 0 0 0 force 0 0 0 torque 0 0 0 radius 0.0360648295971893 invMass 2.54465987306698
BaseParticle id 60 indSpecies 0 position 0.355512118101572 0.607635003880006 0.829468112597737 orientation 1 0 0 0 velocity 1 0 0 angularVelocity 0 0 0 force 0 0 0 torque 0 0 0 radius 0.0283365617475132 invMass 5.24614070787258
BaseParticle id 61 indSpecies 0 position 0.517256297155043 0.12164964794959 0.214041252421177 orientation 1 0 0 0 velocity 1 0 0 angularVelocity 0 0 0 force 0 0 0 torque 0 0 0 radius 0.0253646780034856 invMass 7.3146463676423
BaseParticle id 62 indSpecies 0 position 1.01091824144971 0.0345017872429436 0.265556427402835 orientation 1 0 0 0 velocity 1 0 0 angularVelocity 0 0 0 force 0 0 0 torque 0 0 0 radius 0.0393725933838891 invMass 1.95568691422151
BaseParticle id 63 indSpecies 0 position 0.815857600126546 0.434448583578273 0.621539437564519 orientation 1 0 0 0 velocity 1 0 0 angularVelocity 0 0 0 force 0 0 0 torque 0 0 0 radius 0.0311612555234122 invMass 3.94490502864338
BaseParticle id 64 indSpecies 0 position 0.527433782790381 0.714202909996544 0.966319254630879 orientation 1 0 0 0 velocity 1 0 0 angularVelocity 0 0 0 force 0 0 0 torque 0 0 0 radius 0.0441125664216349 invMass 1.39057500588813
BaseParticle id 65 indSpecies 0 position 0.923208902195831 0.921103616318569 0.778850681354431 orientation 1 0 0 0 velocity 1 0 0 angularVelocity 0 0 0 force 0 0 0 torque 0 0 0 radius 0.0472802444153649 invMass 1.12938562622214
BaseParticle id 66 indSpecies 0 position 0.0894192675227125 0.107153382983847 0.841615346407876 orientation 1 0 0 0 velocity 1 0 0 angularVelocity 0 0 0 force 0 0 0 torque 0 0 0 radius 0.0325638092052529 invMass 3.45681223568706
BaseParticle id 67 indSpecies 0 position 0.455838821869491 0.771512816872901 0.925080305035151 orientation 1 0 0 0 velocity 1 0 0 angularVelocity 0 0 0 force 0 0 0 torque 0 0 0 radius 0.028456348200835 invMass 5.1801686103158
BaseParticle id 68 indSpecies 0 position 1.00511946947768 0.755134920817674 0.958008306140072 orientation 1 0 0 0 velocity 1 0 0 angularVelocity 0 0 0 force 0 0 0 torque 0 0 0 radius 0.03489619478593 invMass 2.80897049710001
BaseParticle id 69 indSpecies 0 position 0.334217603472788 0.058011082878326 0.450302669359089 orientation 1 0 0 0 velocity 1 0 0 angularVelocity 0 0 0 force 0 0 0 torque 0 0 0 radius 0.0417959441972934 invMass 1.63485399546575
BaseParticle id 70 indSpecies 0 position 0.266774849252052 0.513598813197018 0.76014838203774 orientation 1 0 0 0 velocity 1 0 0 angularVelocity 0 0 0 force 0 0 0 torque 0 0 0 radius 0.0266638784886674 invMass 6.29667721148107
BaseParticle id 71 indSpecies 0 position 0.559767896253829 0.86017984537391 0.723647109490216 orientation 1 0 0 0 velocity 1 0 0 angularVelocity 0 0 0 force 0 0 0 torque 0 0 0 radius 0.0293343092041702 invMass 4.72883105807077
BaseParticle id 72 indSpecies 0 position 0.966795410526173 0.412491670425523 0.229513503397337 orientation 1 0 0 0 velocity 1 0 0 angularVelocity 0 0 0 force 0 0 0 torque 0 0 0 radius 0.0288192948058068 invMass 4.98690788335405
BaseParticle id 73 indSpecies 0 position 0.736686687696083 0.525518482992874 0.107503406603352 orientation 1 0 0 0 velocity 1 0 0 angularVelocity 0 0 0 force 0 0 0 torque 0 0 0 radius 0.0273856619350746 invMass 5.81181346815292
BaseParticle id 74 indSpecies 0 position 0.423467422906803 0.508680276098959 0.0565702085787705 orientation 1 0 0 0 velocity 1 0 0 angularVelocity 0 0 0 force 0 0 0 torque 0 0 0 radius 0.0351679636070803 invMass 2.74435147147303
BaseParticle id 75 indSpecies 0 position 0.609631102430044 0.09146822142278 0.922581247126142 orientation 1 0 0 0 velocity 1 0 0 angularVelocity 0 0 0 force 0 0 0 torque 0 0 0 radius 0.0338175469694496 invMass 3.08642046062932
BaseParticle id 76 indSpecies 0 position 0.307428714067274 0.147158287328521 0.674126155046629 orientation 1 0 0 0 velocity 1 0 0 angularVelocity 0 0 0 force 0 0 0 torque 0 0 0 radius 0.0430563775654357 invMass 1.49543977841958
BaseParticle id 77 indSpecies 0 position 0.155726919271304 0.795493101891602 0.10277583347375 orientation 1 0 0 0 velocity 1 0 0 angularVelocity 0 0 0 force 0 0 0 torque 0 0 0 radius 0.0427244798813719 invMass 1.53056240561487
BaseParticle id 78 indSpecies 0 position 0.565839018611385 0.942253700511294 0.168032741948932 orientation 1 0 0 0 velocity 1 0 0 angularVelocity 0 0 0 force 0 0 0 torque 0 0 0 radius 0.041662277847843 invMass 1.65063998894788
BaseParticle id 79 indSpecies 0 position 0.0698563861010079 0.22980958853866 0.691273919594219 orientation 1 0 0 0 velocity 1 0 0 angularVelocity 0 0 0 force 0 0 0 torque 0 0 0 radius 0.0492253938464211 invMass 1.00072280389141
BaseParticle id 80 indSpecies 0 position 0.63756057979766 0.235687481019937 0.658886193615491 orientation 1 0 0 0 velocity 1 0 0 angularVelocity 0 0 0 force 0 0 0 torque 0 0 0 radius 0.0379643487856124 invMass 2.18149152930878
BaseParticle id 81 indSpecies 0 position 0.817418597342986 0.689548411695707 0.208204010307599 orientation 1 0 0 0 velocity 1 0 0 angularVelocity 0 0 0 force 0 0 0 torque 0 0 0 radius 0.0492878729716988 invMass 0.996921966663027
BaseParticle id 82 indSpecies 0 position 0.129827281804916 0.984752233154371 0.90121591100356 orientation 1 0 0 0 velocity 1 0 0 angularVelocity 0 0 0 force 0 0 0 torque 0 0 0 radius 0.029796257773604 invMass 4.51228192863399
BaseParticle id 83 indSpecies 0 position 0.154619472422989 0.286495233619124 0.268494474451529 orientation 1 0 0 0 velocity 1 0 0 angularVelocity 0 0 0 force 0 0 0 torque 0 0 0 radius 0.0268759223615044 invMass 6.1488126629367
BaseParticle id 84 indSpecies 0 position 0.343728059117002 0.858094801327125 0.857132481544155 orientation 1 0 0 0 velocity 1 0 0 angularVelocity 0 0 0 force 0 0 0 torque 0 0 0 radius 0.0435856919329747 invMass 1.4416158890659
BaseParticle id 85 indSpecies 0 position 0.20015322817475 0.967466172792515 0.720422967597448 orientation 1 0 0 0 velocity 1 0 0 angularVelocity 0 0 0 force 0 0 0 torque 0 0 0 radius 0.0428211055530039 invMass 1.52022464207918
BaseParticle id 86 indSpecies 0 position 0.10303546059594 0.784069091282721 0.197375197711051 orientation 1 0 0 0 velocity 1 0 0 angularVelocity 0 0 0 force 0 0 0 torque 0 0 0 radius 0.0431557940615753 invMass 1.48512859123586
BaseParticle id 87 indSpecies 0 position 0.756079634413047 0.920831097363652 0.0127482032284623 orientation 1 0 0 0 velocity 1 0 0 angularVelocity 0 0 0 force 0 0 0 torque 0 0 0 radius 0.0446319274654315 invMass 1.34259327421333
BaseParticle id 88 indSpecies 0 position 0.629861511169128 0.568431507266656 0.646791353219383 orientation 1 0 0 0 velocity 1 0 0 angularVelocity 0 0 0 force 0 0 0 torque 0 0 0 radius 0.0480521102454028 invMass 1.07583086707634
BaseParticle id 89 indSpecies 0 position 1.01976177327357 0.230888765090249 0.441390457152025 orientation 1 0 0 0 velocity 1 0 0 angularVelocity 0 0 0 force 0 0 0 torque 0 0 0 radius 0.0397994673905899 invMass 1.89343157124251
BaseParticle id 90 indSpecies 0 position 0.151521929864284 0.847743575603009 0.455495300278538 orientation 1 0 0 0 velocity 1 0 0 angularVelocity 0 0 0 force 0 0 0 torque 0 0 0 radius 0.0460912764108821 invMass 1.21906030288628
BaseParticle id 91 indSpecies 0 position 0.685667227780754 0.692592215079263 0.675596889410543 orientation 1 0 0 0 velocity 1 0 0 angularVelocity 0 0 0 force 0 0 0 torque 0 0 0 radius 0.0297736759951583 invMass 4.52255670820647
BaseParticle id 92 indSpecies 0 position 0.693992759851743 0.236492976326036 0.00977054703070745 orientation 1 0 0 0 velocity 1 0 0 angularVelocity 0 0 0 force 0 0 0 torque 0 0 0 radius 0.0437186455645425 invMass 1.42850346730674
BaseParticle id 93 indSpecies 0 position 0.135207824748747 0.127448030628778 0.930580266816001 orientation 1 0 0 0 velocity 1 0 0 angularVelocity 0 0 0 force 0 0 0 torque 0 0 0 radius 0.0385799702596106 invMass 2.0787187312074
BaseParticle id 94 indSpecies 0 position 0.246841958959732 0.206377711886188 0.534512906768813 orientation 1 0 0 0 velocity 1 0 0 angularVelocity 0 0 0 force 0 0 0 torque 0 0 0 radius 0.0317865976302078 invMass 3.71662943154267
BaseParticle id 95 indSpecies 0 position 0.280426190439212 0.697837645469385 0.0830736345769152 orientation 1 0 0 0 velocity 1 0 0 angularVelocity 0 0 0 force 0 0 0 torque 0 0 0 radius 0.0276187519751315 invMass 5.66590443499958
BaseParticle id 96 indSpecies 0 position 0.678381465209291 0.643772621970835 0.375577288329995 orientation 1 0 0 0 velocity 1 0 0 angularVelocity 0 0 0 force 0 0 0 torque 0 0 0 radius 0.0436871308892154 invMass 1.43159714536628
BaseParticle id 97 indSpecies 0 position 0.91128495017878 0.10513719534023 0.0657826791836111 orientation 1 0 0 0 velocity 1 0 0 angularVelocity 0 0 0 force 0 0 0 torque 0 0 0 radius 0.0499229579931843 invMass 0.959357478498794
BaseParticle id 98 indSpecies 0 position 0.0710547160626814 0.640028805807206 0.160687130726234 orientation 1 0 0 0 velocity 1 0 0 angularVelocity 0 0 0 force 0 0 0 torque 0 0 0 radius 0.0474293614295969 invMass 1.11876678068723
BaseParticle id 99 indSpecies 0 position 0.117308863795075 0.79928680621154 0.631030881189713 orientation 1 0 0 0 velocity 1 0 0 angularVelocity 0 0 0 force 0 0 0 torque 0 0 0 radius 0.0428119278114178 invMass 1.52120253918631
BaseParticle id 100 indSpecies 0 position 0.192743725429525 0.72262648891413 0.728015825405702 orientation 1 0 0 0 velocity 1 0 0 angularVelocity 0 0 0 force 0 0 0 torque 0 0 0 radius 0.0279540417455565 invMass 5.46446397095115
BaseParticle id 101 indSpecies 0 position 0.0433632158270452 0.916895101855607 0.933595272774254 orientation 1 0 0 0 velocity 1 0 0 angularVelocity 0 0 0 force 0 0 0 torque 0 0 0 radius 0.0376131339812529 invMass 2.24317332627379
BaseParticle id 102 indSpecies 0 position 0.692434111430835 0.940823052133599 0.927009793066411 orientation 1 0 0 0 velocity 1 0 0 angularVelocity 0 0 0 force 0 0 0 torque 0 0 0 radius 0.0395669199623476 invMass 1.92701307600559
BaseParticle id 103 indSpecies 0 position 0.889518599594458 0.412681680719665 0.486012069055799 orientation 1 0 0 0 velocity 1 0 0 angularVelocity 0 0 0 force 0 0 0 torque 0 0 0 radius 0.0282216492544658 invMass 5.31048547004769
BaseParticle id 104 indSpecies 0 position 0.633530076468799 0.307666315410597 0.828013126898545 orientation 1 0 0 0 velocity 1 0 0 angularVelocity 0 0 0 force 0 0 0 torque 0 0 0 radius 0.0489733053613703 invMass 1.01625605064386
BaseParticle id 105 indSpecies 0 position 0.849352423707624 0.974657832668482 0.0377983515730143 orientation 1 0 0 0 velocity 1 0 0 angularVelocity 0 0 0 force 0 0 0 torque 0 0 0 radius 0.0307573143572013 invMass 4.10238259385431
BaseParticle id 106 indSpecies 0 position 0.437013147457488 0.0411363038782624 0.550406894133979 orientation 1 0 0 0 velocity 1 0 0 angularVelocity 0 0 0 force 0 0 0 torque 0 0 0 radius 0.034937532306707 invMass 2.79901170467302
BaseParticle id 107 indSpecies 0 position 0.537899477372037 0.217636006681587 0.513250772363273 orientation 1 0 0 0 velocity 1 0 0 angularVelocity 0 0 0 force 0 0 0 torque 0 0 0 radius 0.0425627664266501 invMass 1.54807448117127
BaseParticle id 108 indSpecies 0 position 0.3970537736108 0.807334609509134 0.294698657193502 orientation 1 0 0 0 velocity 1 0 0 angularVelocity 0 0 0 force 0 0 0 torque 0 0 0 radius 0.0270463480362237 invMass 6.03330802158734
BaseParticle id 109 indSpecies 0 position 0.318148077634955 0.299559791293405 0.900140695366878 orientation 1 0 0 0 velocity 1 0 0 angularVelocity 0 0 0 force 0 0 0 torque 0 0 0 radius 0.0293597704224663 invMass 4.71653899166951
BaseParticle id 110 indSpecies 0 position 0.190736619112325 0.356665874499207 0.358671551236257 orientation 1 0 0 0 velocity 1 0 0 angularVelocity 0 0 0 force 0 0 0 torque 0 0 0 radius 0.0476819124094379 invMass 1.10108386386384
BaseParticle id 111 indSpecies 0 position 0.998029102107481 0.289943808419682 0.165717257032434 orientation 1 0 0 0 velocity 1 0 0 angularVelocity 0 0 0 force 0 0 0 torque 0 0 0 radius 0.0297297603872328 invMass 4.54262794480788
BaseParticle id 112 indSpecies 0 position 0.831313582759988 0.940554455909362 0.843093314354221 orientation 1 0 0 0 velocity 1 0 0 angularVelocity 0 0 0 force 0 0 0 torque 0 0 0 radius 0.0293708772590655 invMass 4.71119022188627
BaseParticle id 113 indSpecies 0 position 1.01346255139125 0.873379586382415 0.197913468631065 orientation 1 0 0 0 velocity 1 0 0 angularVelocity 0 0 0 force 0 0 0 torque 0 0 0 radius 0.0301980287253875 invMass 4.33456593261047
BaseParticle id 114 indSpecies 0 position 0.942171281723144 0.885949704902293 0.62897424341275 orientation 1 0 0 0 velocity 1 0 0 angularVelocity 0 0 0 force 0 0 0 torque 0 0 0 radius 0.0481587855162483 invMass 1.06869755648893
BaseParticle id 115 indSpecies 0 position 0.278439638411214 0.220197411048974 0.301521164084299 orientation 1 0 0 0 velocity 1 0 0 angularVelocity 0 0 0 force 0 0 0 torque 0 0 0 radius 0.0489546315288594 invMass 1.01741945242427
BaseParticle id 116 indSpecies 0 position 0.412482065230157 0.829479280086719 0.92307710654747 orientation 1 0 0 0 velocity 1 0 0 angularVelocity 0 0 0 force 0 0 0 torque 0 0 0 radius 0.0427383943528511 invMass 1.52906796243594
BaseParticle id 117 indSpecies 0 position 1.01963244330172 0.690677216564605 0.674044344877783 orientation 1 0 0 0 velocity 1 0 0 angularVelocity 0 0 0 force 0 0 0 torque 0 0 0 radius 0.035487655144662 invMass 2.67084990516109
BaseParticle id 118 indSpecies 0 position 0.829139107531736 0.457278326659204 0.31294365104945 orientation 1 0 0 0 velocity 1 0 0 angularVelocity 0 0 0 force 0 0 0 torque 0 0 0 radius 0.0460322600360659 invMass 1.22375506239043
BaseParticle id 119 indSpecies 0 position 0.896859168636742 0.293123849394616 0.836843717995245 orientation 1 0 0 0 velocity 1 0 0 angularVelocity 0 0 0 force 0 0 0 torque 0 0 0 radius 0.0413011572870415 invMass 1.694317247662
BaseParticle id 120 indSpecies 0 position 0.234531542533511 0.967399011396431 0.15139237684068 orientation 1 0 0 0 velocity 1 0 0 angularVelocity 0 0 0 force 0 0 0 torque 0 0 0 radius 0.0340115711940345 invMass 3.03390033569565
BaseParticle id 121 indSpecies 0 position 0.139201037921754 0.772264629814527 0.0238402308674155 orientation 1 0 0 0 velocity 1 0 0 angularVelocity 0 0 0 force 0 0 0 torque 0 0 0 radius 0.0313686056003267 invMass 3.86719216813741
BaseParticle id 122 indSpecies 0 position 0.536323050934518 0.692801479536294 0.194416700681283 orientation 1 0 0 0 velocity 1 0 0 angularVelocity 0 0 0 force 0 0 0 torque 0 0 0 radius 0.0360128311803445 invMass 2.55569839113802
BaseParticle id 123 indSpecies 0 position 0.289487405876173 0.107828372057687 0.575557384103949 orientation 1 0 0 0 velocity 1 0 0 angularVelocity 0 0 0 force 0 0 0 torque 0 0 0 radius 0.0473878700077647 invMass 1.12170803208267
BaseParticle id 124 indSpecies 0 position 0.0739887975398564 0.338670191039638 0.242913741392164 orientation 1 0 0 0 velocity 1 0 0 angularVelocity 0 0 0 force 0 0 0 torque 0 0 0 radius 0.0377633300025358 invMass 2.21651433161175