MercuryDPM 0.14 name InsertionBoundarySelfTest revision 737d820 repository https://bitbucket.org/mercurydpm/mercurydpm.git
dataFile    fileType ONE_FILE saveCount 10 counter 22 lastSavedTimeStep 201
fStatFile   fileType ONE_FILE saveCount 20 counter 12 lastSavedTimeStep 201
eneFile     fileType ONE_FILE saveCount 20 counter 12 lastSavedTimeStep 201
restartFile fileType ONE_FILE saveCount 20 counter 12 lastSavedTimeStep 201
statFile    fileType ONE_FILE saveCount 20 counter 0
interactionFile fileType NO_FILE saveCount 0 counter 0
xMin 0 xMax 1 yMin 0 yMax 1 zMin 0 zMax 1
timeStep 0.0001 time 0.0200999999999999 ntimeSteps 201 timeMax 0.02
systemDimensions 3 particleDimensions 3 gravity 0 0 0 backgroundDrag 0 writeVTK 0 NO_FILE NO_FILE 0 0 0 0 0 random  0 1103515245 12345 1073741824 607 273 784607267
Species 1
LinearViscoelasticSpecies id 0 density 2000 stiffness 10000 dissipation 0
Walls 0
Boundaries 1
CubeInsertionBoundary id 0 maxFailed 1 massInserted 283.257730442585 volumeInserted 0.141628865221292 numberOfParticlesInserted 615 isActivated 1 psdCount 1 psd 50 0.025 0 0.0255102040816327 0.0204081632653061 0.0260204081632653 0.0408163265306122 0.026530612244898 0.0612244897959184 0.0270408163265306 0.0816326530612245 0.0275510204081633 0.102040816326531 0.0280612244897959 0.122448979591837 0.0285714285714286 0.142857142857143 0.0290816326530612 0.163265306122449 0.0295918367346939 0.183673469387755 0.0301020408163265 0.204081632653061 0.0306122448979592 0.224489795918367 0.0311224489795918 0.244897959183673 0.0316326530612245 0.26530612244898 0.0321428571428571 0.285714285714286 0.0326530612244898 0.306122448979592 0.0331632653061224 0.326530612244898 0.0336734693877551 0.346938775510204 0.0341836734693877 0.36734693877551 0.0346938775510204 0.387755102040816 0.035204081632653 0.408163265306123 0.0357142857142857 0.428571428571429 0.0362244897959184 0.448979591836735 0.036734693877551 0.469387755102041 0.0372448979591837 0.489795918367347 0.0377551020408163 0.510204081632653 0.038265306122449 0.530612244897959 0.0387755102040816 0.551020408163266 0.0392857142857143 0.571428571428572 0.0397959183673469 0.591836734693878 0.0403061224489796 0.612244897959184 0.0408163265306122 0.63265306122449 0.0413265306122449 0.653061224489796 0.0418367346938775 0.673469387755102 0.0423469387755102 0.693877551020409 0.0428571428571428 0.714285714285715 0.0433673469387755 0.734693877551021 0.0438775510204081 0.755102040816327 0.0443877551020408 0.775510204081633 0.0448979591836734 0.795918367346939 0.0454081632653061 0.816326530612245 0.0459183673469387 0.836734693877552 0.0464285714285714 0.857142857142858 0.046938775510204 0.877551020408164 0.0474489795918367 0.89795918367347 0.0479591836734694 0.918367346938776 0.048469387755102 0.938775510204082 0.0489795918367347 0.959183673469388 0.0494897959183673 0.979591836734695 0.05 1 initialVolume 0 samplingInterval 0 variableCumulativeVolumeFlowRate 0 particleToCopy 1 BaseParticle id 0 indSpecies 0 position 0 0 0 orientation 1 0 0 0 velocity 0 0 0 angularVelocity 0 0 0 force 0 0 0 torque 0 0 0 radius 1 invMass 1 posMin 0 0 0 posMax 1 1 1 velMin 1 0 0 velMax 1 0 0
Particles 615
BaseParticle id 0 indSpecies 0 position 0.482818009347822 0.451551026244135 0.84762122589385 orientation 1 0 0 0 velocity 1 0 0 angularVelocity 0 0 0 force 0 0 0 torque 0 0 0 radius 0.0361979385310727 invMass 2.51669090944603
BaseParticle id 1 indSpecies 0 position 0.433787151301476 0.0993150145753146 0.771077505526061 orientation 1 0 0 0 velocity 1 0 0 angularVelocity 0 0 0 force 0 0 0 torque 0 0 0 radius 0.0363887334397738 invMass 2.47731125722584
BaseParticle id 2 indSpecies 0 position 0.615721126910557 0.926644036614668 0.072714161991408 orientation 1 0 0 0 velocity 1 0 0 angularVelocity 0 0 0 force 0 0 0 torque 0 0 0 radius 0.036670408017366 invMass 2.42066208800576
BaseParticle id 3 indSpecies 0 position 0.213444608530545 0.803075776618835 0.214465732486485 orientation 1 0 0 0 velocity 1 0 0 angularVelocity 0 0 0 force 0 0 0 torque 0 0 0 radius 0.0461564081281639 invMass 1.2139069012946
BaseParticle id 4 indSpecies 0 position 0.311641582463268 0.651623650778435 0.306274980952707 orientation 1 0 0 0 velocity 1 0 0 angularVelocity 0 0 0 force 0 0 0 torque 0 0 0 radius 0.0403574465312612 invMass 1.81597704664993
BaseParticle id 5 indSpecies 0 position 0.228331886484908 0.969839190161005 0.537878006195763 orientation 1 0 0 0 velocity 1 0 0 angularVelocity 0 0 0 force 0 0 0 torque 0 0 0 radius 0.0303163898560332 invMass 4.28399490067636
BaseParticle id 6 indSpecies 0 position 0.98559865124002 0.187199103471638 0.751426060915528 orientation 1 0 0 0 velocity 1 0 0 angularVelocity 0 0 0 force 0 0 0 torque 0 0 0 radius 0.0264988606163995 invMass 6.41504626293188
BaseParticle id 7 indSpecies 0 position 0.148699160061123 0.306166582455703 0.591826113321049 orientation 1 0 0 0 velocity 1 0 0 angularVelocity 0 0 0 force 0 0 0 torque 0 0 0 radius 0.0472253351460146 invMass 1.13332964511587
BaseParticle id 8 indSpecies 0 position 0.792737262050864 0.846877715692969 0.788350858922721 orientation 1 0 0 0 velocity 1 0 0 angularVelocity 0 0 0 force 0 0 0 torque 0 0 0 radius 0.0355736885644018 invMass 2.65151872898275
BaseParticle id 9 indSpecies 0 position 0.910366296386003 0.611222965073564 0.680974906607554 orientation 1 0 0 0 velocity 1 0 0 angularVelocity 0 0 0 force 0 0 0 torque 0 0 0 radius 0.027108961370311 invMass 5.99159926606273
BaseParticle id 10 indSpecies 0 position 0.915757810309753 0.425251628807512 0.7872364187732 orientation 1 0 0 0 velocity 1 0 0 angularVelocity 0 0 0 force 0 0 0 torque 0 0 0 radius 0.0439883684842974 invMass 1.40238685319864
BaseParticle id 11 indSpecies 0 position 0.460465642660421 0.0549294957379536 0.0311985714070513 orientation 1 0 0 0 velocity 1 0 0 angularVelocity 0 0 0 force 0 0 0 torque 0 0 0 radius 0.0302877564599186 invMass 4.29615638165154
BaseParticle id 12 indSpecies 0 position 0.83659889703933 0.772353886838673 0.455273494631729 orientation 1 0 0 0 velocity 1 0 0 angularVelocity 0 0 0 force 0 0 0 torque 0 0 0 radius 0.0412395082163123 invMass 1.70192713294548
BaseParticle id 13 indSpecies 0 position 0.830699480762052 0.967712630547851 0.58317498808431 orientation 1 0 0 0 velocity 1 0 0 angularVelocity 0 0 0 force 0 0 0 torque 0 0 0 radius 0.0282911834067291 invMass 5.27142525030085
BaseParticle id 14 indSpecies 0 position 0.276943308509006 0.332247916299619 0.0975970969557789 orientation 1 0 0 0 velocity 1 0 0 angularVelocity 0 0 0 force 0 0 0 torque 0 0 0 radius 0.0332682730899906 invMass 3.24183287111785
BaseParticle id 15 indSpecies 0 position 0.71096367741845 0.48267025548716 0.76193224195211 orientation 1 0 0 0 velocity 1 0 0 angularVelocity 0 0 0 force 0 0 0 torque 0 0 0 radius 0.0402090126435625 invMass 1.83616273202602
BaseParticle id 16 indSpecies 0 position 0.450958077841475 0.324626619625253 0.0506626339157461 orientation 1 0 0 0 velocity 1 0 0 angularVelocity 0 0 0 force 0 0 0 torque 0 0 0 radius 0.0482624705132047 invMass 1.06182451306808
BaseParticle id 17 indSpecies 0 position 0.464340212788114 0.262642771692348 0.849237541808526 orientation 1 0 0 0 velocity 1 0 0 angularVelocity 0 0 0 force 0 0 0 torque 0 0 0 radius 0.0267535745216434 invMass 6.23355717469784
BaseParticle id 18 indSpecies 0 position 0.645728522775945 0.75768998194701 0.841023461109937 orientation 1 0 0 0 velocity 1 0 0 angularVelocity 0 0 0 force 0 0 0 torque 0 0 0 radius 0.0341925433836795 invMass 2.98598192952081
BaseParticle id 19 indSpecies 0 position 0.0770846078385748 0.0911323026836548 0.444778516474386 orientation 1 0 0 0 velocity 1 0 0 angularVelocity 0 0 0 force 0 0 0 torque 0 0 0 radius 0.0362198935759924 invMass 2.51211713212469
BaseParticle id 20 indSpecies 0 position 0.272319567601828 0.747495385122024 0.84527385714904 orientation 1 0 0 0 velocity 1 0 0 angularVelocity 0 0 0 force 0 0 0 torque 0 0 0 radius 0.0351235848828493 invMass 2.75476710233639
BaseParticle id 21 indSpecies 0 position 0.803926210567422 0.121918775959016 0.0755647597130715 orientation 1 0 0 0 velocity 1 0 0 angularVelocity 0 0 0 force 0 0 0 torque 0 0 0 radius 0.0366175610958074 invMass 2.43115781028441
BaseParticle id 22 indSpecies 0 position 0.461164535990761 0.472578531622348 0.618409596738955 orientation 1 0 0 0 velocity 1 0 0 angularVelocity 0 0 0 force 0 0 0 torque 0 0 0 radius 0.0298577623377567 invMass 4.48445452731471
BaseParticle id 23 indSpecies 0 position 0.884861215590626 0.102355983944278 0.832432083010271 orientation 1 0 0 0 velocity 1 0 0 angularVelocity 0 0 0 force 0 0 0 torque 0 0 0 radius 0.0452292280335087 invMass 1.29010146691137
BaseParticle id 24 indSpecies 0 position 0.554517348246165 0.0837098461727521 0.522019398843852 orientation 1 0 0 0 velocity 1 0 0 angularVelocity 0 0 0 force 0 0 0 torque 0 0 0 radius 0.0303526424021236 invMass 4.26866309194418
BaseParticle id 25 indSpecies 0 position 0.758148986605786 0.559428380281266 0.700997407826597 orientation 1 0 0 0 velocity 1 0 0 angularVelocity 0 0 0 force 0 0 0 torque 0 0 0 radius 0.0396543329388119 invMass 1.91429757498525
BaseParticle id 26 indSpecies 0 position 0.456748553592012 0.597098215858361 0.575679571762979 orientation 1 0 0 0 velocity 1 0 0 angularVelocity 0 0 0 force 0 0 0 torque 0 0 0 radius 0.0438859416509197 invMass 1.41222901796533
BaseParticle id 27 indSpecies 0 position 0.901635907216334 0.0587385044817452 0.252225785281299 orientation 1 0 0 0 velocity 1 0 0 angularVelocity 0 0 0 force 0 0 0 torque 0 0 0 radius 0.0282782144604929 invMass 5.27868131546078
BaseParticle id 28 indSpecies 0 position 0.290183332944116 0.154171871809129 0.07775785487354 orientation 1 0 0 0 velocity 1 0 0 angularVelocity 0 0 0 force 0 0 0 torque 0 0 0 radius 0.0385757779314769 invMass 2.0793965361885
BaseParticle id 29 indSpecies 0 position 0.358039195781535 0.327630155414687 0.586293312174926 orientation 1 0 0 0 velocity 1 0 0 angularVelocity 0 0 0 force 0 0 0 torque 0 0 0 radius 0.0325048788057652 invMass 3.47564764249964
BaseParticle id 30 indSpecies 0 position 0.251989321082838 0.758287987896904 0.523946741107901 orientation 1 0 0 0 velocity 1 0 0 angularVelocity 0 0 0 force 0 0 0 torque 0 0 0 radius 0.0408522658733962 invMass 1.75078551928837
BaseParticle id 31 indSpecies 0 position 0.171729742855083 0.544205111875939 0.921347505486247 orientation 1 0 0 0 velocity 1 0 0 angularVelocity 0 0 0 force 0 0 0 torque 0 0 0 radius 0.0331594520067946 invMass 3.27385439848003
BaseParticle id 32 indSpecies 0 position 0.559809540342715 0.747160042871572 0.531534103181647 orientation 1 0 0 0 velocity 1 0 0 angularVelocity 0 0 0 force 0 0 0 torque 0 0 0 radius 0.0498418914744849 invMass 0.964046205048357
BaseParticle id 33 indSpecies 0 position 0.925490531674127 0.836178721081299 0.117204199435931 orientation 1 0 0 0 velocity 1 0 0 angularVelocity 0 0 0 force 0 0 0 torque 0 0 0 radius 0.0364996710946425 invMass 2.45479111178392
BaseParticle id 34 indSpecies 0 position 0.178523266987386 0.970729528953573 0.969606445199245 orientation 1 0 0 0 velocity 1 0 0 angularVelocity 0 0 0 force 0 0 0 torque 0 0 0 radius 0.0424215423336926 invMass 1.56358693274725
BaseParticle id 35 indSpecies 0 position 0.589164710520611 0.588207174476043 0.884957535299512 orientation 1 0 0 0 velocity 1 0 0 angularVelocity 0 0 0 force 0 0 0 torque 0 0 0 radius 0.0291828146160645 invMass 4.80285932223283
BaseParticle id 36 indSpecies 0 position 0.137705129908671 0.417646053789513 0.800067577697274 orientation 1 0 0 0 velocity 1 0 0 angularVelocity 0 0 0 force 0 0 0 torque 0 0 0 radius 0.030505988552163 invMass 4.20461355614224
BaseParticle id 37 indSpecies 0 position 0.47804487871188 0.0235067689572397 0.956917095038186 orientation 1 0 0 0 velocity 1 0 0 angularVelocity 0 0 0 force 0 0 0 torque 0 0 0 radius 0.0492234080010769 invMass 1.00084392680691
BaseParticle id 38 indSpecies 0 position 0.173984927428898 0.10402804230896 0.730118187395746 orientation 1 0 0 0 velocity 1 0 0 angularVelocity 0 0 0 force 0 0 0 torque 0 0 0 radius 0.0385938661716365 invMass 2.07647418074186
BaseParticle id 39 indSpecies 0 position 0.0509774744967214 0.418329746072805 0.686011585699383 orientation 1 0 0 0 velocity 1 0 0 angularVelocity 0 0 0 force 0 0 0 torque 0 0 0 radius 0.0333356173512612 invMass 3.22222518641577
BaseParticle id 40 indSpecies 0 position 0.732188435055138 0.128010361336162 0.439465037137768 orientation 1 0 0 0 velocity 1 0 0 angularVelocity 0 0 0 force 0 0 0 torque 0 0 0 radius 0.0454781141877473 invMass 1.26903631961826
BaseParticle id 41 indSpecies 0 position 1.01520420004129 0.684156378093961 0.893831915320985 orientation 1 0 0 0 velocity 1 0 0 angularVelocity 0 0 0 force 0 0 0 torque 0 0 0 radius 0.0297253230989295 invMass 4.54466256951671
BaseParticle id 42 indSpecies 0 position 0.472537240970377 0.833900956591683 0.276064363982468 orientation 1 0 0 0 velocity 1 0 0 angularVelocity 0 0 0 force 0 0 0 torque 0 0 0 radius 0.0397865421409635 invMass 1.89527749896291
BaseParticle id 43 indSpecies 0 position 0.897292337941663 0.169700750923063 0.961445872707809 orientation 1 0 0 0 velocity 1 0 0 angularVelocity 0 0 0 force 0 0 0 torque 0 0 0 radius 0.0493294214741015 invMass 0.994405066843215
BaseParticle id 44 indSpecies 0 position 0.392486540700785 0.6034812148628 0.29246981694133 orientation 1 0 0 0 velocity 1 0 0 angularVelocity 0 0 0 force 0 0 0 torque 0 0 0 radius 0.0300138999642295 invMass 4.41483119814526
BaseParticle id 45 indSpecies 0 position 0.364772310606414 0.190150813022488 0.242646593374529 orientation 1 0 0 0 velocity 1 0 0 angularVelocity 0 0 0 force 0 0 0 torque 0 0 0 radius 0.0434592464362955 invMass 1.4542357615132
BaseParticle id 46 indSpecies 0 position 0.0757559420766726 0.166009553553528 0.388066255126087 orientation 1 0 0 0 velocity 1 0 0 angularVelocity 0 0 0 force 0 0 0 torque 0 0 0 radius 0.0369078746900174 invMass 2.37423817015265
BaseParticle id 47 indSpecies 0 position 0.57772776756647 0.698103582767673 0.918470906169646 orientation 1 0 0 0 velocity 1 0 0 angularVelocity 0 0 0 force 0 0 0 torque 0 0 0 radius 0.0420462338898128 invMass 1.6058319318345
BaseParticle id 48 indSpecies 0 position 0.616129184033599 0.183183245190249 0.912038071162963 orientation 1 0 0 0 velocity 1 0 0 angularVelocity 0 0 0 force 0 0 0 torque 0 0 0 radius 0.0287125412582493 invMass 5.0427390876513
BaseParticle id 49 indSpecies 0 position 0.901592285929625 0.331543695804157 0.0720295011326395 orientation 1 0 0 0 velocity 1 0 0 angularVelocity 0 0 0 force 0 0 0 torque 0 0 0 radius 0.0348743351621355 invMass 2.81425589114562
BaseParticle id 50 indSpecies 0 position 0.471786094855714 0.672104408338569 0.551819820374418 orientation 1 0 0 0 velocity 1 0 0 angularVelocity 0 0 0 force 0 0 0 torque 0 0 0 radius 0.0284151740596963 invMass 5.20271975171176
BaseParticle id 51 indSpecies 0 position 0.524512335635242 0.210314038013747 0.429588166596752 orientation 1 0 0 0 velocity 1 0 0 angularVelocity 0 0 0 force 0 0 0 torque 0 0 0 radius 0.0331621619692197 invMass 3.27305186056727
BaseParticle id 52 indSpecies 0 position 0.780633111222987 0.895836357124302 0.0326430303671927 orientation 1 0 0 0 velocity 1 0 0 angularVelocity 0 0 0 force 0 0 0 torque 0 0 0 radius 0.039285979820035 invMass 1.96865052665454
BaseParticle id 53 indSpecies 0 position 0.676577938556131 0.429913051957346 0.329004984042603 orientation 1 0 0 0 velocity 1 0 0 angularVelocity 0 0 0 force 0 0 0 torque 0 0 0 radius 0.0266998411206929 invMass 6.27126804698309
BaseParticle id 54 indSpecies 0 position 0.169347147765244 0.537468226125959 0.813237801368127 orientation 1 0 0 0 velocity 1 0 0 angularVelocity 0 0 0 force 0 0 0 torque 0 0 0 radius 0.0371248344792107 invMass 2.33285538214468
BaseParticle id 55 indSpecies 0 position 0.739495214783123 0.957208542193092 0.965816446611829 orientation 1 0 0 0 velocity 1 0 0 angularVelocity 0 0 0 force 0 0 0 torque 0 0 0 radius 0.0317878092034244 invMass 3.71620447645809
BaseParticle id 56 indSpecies 0 position 0.124003962963816 0.805637136282737 0.654154038378825 orientation 1 0 0 0 velocity 1 0 0 angularVelocity 0 0 0 force 0 0 0 torque 0 0 0 radius 0.0394793933298421 invMass 1.93985819553299
BaseParticle id 57 indSpecies 0 position 0.711056287203861 0.792814079865055 0.424296728871486 orientation 1 0 0 0 velocity 1 0 0 angularVelocity 0 0 0 force 0 0 0 torque 0 0 0 radius 0.0439468745711773 invMass 1.40636293650153
BaseParticle id 58 indSpecies 0 position 0.869068330741422 0.92023832824059 0.220323394778815 orientation 1 0 0 0 velocity 1 0 0 angularVelocity 0 0 0 force 0 0 0 torque 0 0 0 radius 0.046174995883186 invMass 1.2124415158523
BaseParticle id 59 indSpecies 0 position 0.88329327908969 0.268780345778185 0.426595558946398 orientation 1 0 0 0 velocity 1 0 0 angularVelocity 0 0 0 force 0 0 0 torque 0 0 0 radius 0.0445769428126462 invMass 1.34756758036299
BaseParticle id 60 indSpecies 0 position 0.674179626466537 0.44658502615375 0.00838929600232352 orientation 1 0 0 0 velocity 1 0 0 angularVelocity 0 0 0 force 0 0 0 torque 0 0 0 radius 0.0255230951213101 invMass 7.17928803868945
BaseParticle id 61 indSpecies 0 position 0.456484353210324 0.447910011328841 0.377591434514531 orientation 1 0 0 0 velocity 1 0 0 angularVelocity 0 0 0 force 0 0 0 torque 0 0 0 radius 0.0325888989797954 invMass 3.4488343149834
BaseParticle id 62 indSpecies 0 position 0.82457265600136 0.434560947646796 0.111988612346362 orientation 1 0 0 0 velocity 1 0 0 angularVelocity 0 0 0 force 0 0 0 torque 0 0 0 radius 0.0478270125310502 invMass 1.09109265762897
BaseParticle id 63 indSpecies 0 position 0.393211025844129 0.0324110006611691 0.396378131214177 orientation 1 0 0 0 velocity 1 0 0 angularVelocity 0 0 0 force 0 0 0 torque 0 0 0 radius 0.0327141471962085 invMass 3.40937352757671
BaseParticle id 64 indSpecies 0 position 0.401129850278485 0.52633974652147 0.904574840418459 orientation 1 0 0 0 velocity 1 0 0 angularVelocity 0 0 0 force 0 0 0 torque 0 0 0 radius 0.0471285976923907 invMass 1.14032289066236
BaseParticle id 65 indSpecies 0 position 0.367447213393217 0.224759218073674 0.857333733833084 orientation 1 0 0 0 velocity 1 0 0 angularVelocity 0 0 0 force 0 0 0 torque 0 0 0 radius 0.0398214666894874 invMass 1.89029523576781
BaseParticle id 66 indSpecies 0 position 0.769967138515814 0.37202677654845 0.879528883956811 orientation 1 0 0 0 velocity 1 0 0 angularVelocity 0 0 0 force 0 0 0 torque 0 0 0 radius 0.0421593008041989 invMass 1.5929465221519
BaseParticle id 67 indSpecies 0 position 0.433191745604208 0.862548099958759 0.764502656865397 orientation 1 0 0 0 velocity 1 0 0 angularVelocity 0 0 0 force 0 0 0 torque 0 0 0 radius 0.0403350346959022 invMass 1.81900582776002
BaseParticle id 68 indSpecies 0 position 0.529112105230694 0.0871099707790557 0.891209776614597 orientation 1 0 0 0 velocity 1 0 0 angularVelocity 0 0 0 force 0 0 0 torque 0 0 0 radius 0.032715065782946 invMass 3.4090863463687
BaseParticle id 69 indSpecies 0 position 0.275437293783352 0.121758572643847 0.302552368210114 orientation 1 0 0 0 velocity 1 0 0 angularVelocity 0 0 0 force 0 0 0 torque 0 0 0 radius 0.0472915018197399 invMass 1.12857929163926
BaseParticle id 70 indSpecies 0 position 0.851239288829973 0.348887757073261 0.138253928033399 orientation 1 0 0 0 velocity 1 0 0 angularVelocity 0 0 0 force 0 0 0 torque 0 0 0 radius 0.0278091778059233 invMass 5.55030626851393
BaseParticle id 71 indSpecies 0 position 0.863299946893656 0.399289263971812 0.395847791437201 orientation 1 0 0 0 velocity 1 0 0 angularVelocity 0 0 0 force 0 0 0 torque 0 0 0 radius 0.0469938098442969 invMass 1.1501630975967
BaseParticle id 72 indSpecies 0 position 0.946583688774532 0.311073244259625 0.671837767891737 orientation 1 0 0 0 velocity 1 0 0 angularVelocity 0 0 0 force 0 0 0 torque 0 0 0 radius 0.035287076626751 invMass 2.71665415229043
BaseParticle id 73 indSpecies 0 position 0.250914911040182 0.895743060954154 0.31421760347279 orientation 1 0 0 0 velocity 1 0 0 angularVelocity 0 0 0 force 0 0 0 torque 0 0 0 radius 0.0446048038163843 invMass 1.34504400872889
BaseParticle id 74 indSpecies 0 position 0.999059847091267 0.066555139546697 0.246774849252054 orientation 1 0 0 0 velocity 1 0 0 angularVelocity 0 0 0 force 0 0 0 torque 0 0 0 radius 0.034571364801016 invMass 2.8888954204285
BaseParticle id 75 indSpecies 0 position 0.416235022324848 0.173372368166808 0.539767896253832 orientation 1 0 0 0 velocity 1 0 0 angularVelocity 0 0 0 force 0 0 0 torque 0 0 0 radius 0.0263848195618844 invMass 6.49858807833524
BaseParticle id 76 indSpecies 0 position 0.30126145128043 0.635616950098782 0.0954264774029828 orientation 1 0 0 0 velocity 1 0 0 angularVelocity 0 0 0 force 0 0 0 torque 0 0 0 radius 0.0395886875728973 invMass 1.92383615252544
BaseParticle id 77 indSpecies 0 position 0.162968914338415 0.735978252500316 0.406718544283213 orientation 1 0 0 0 velocity 1 0 0 angularVelocity 0 0 0 force 0 0 0 torque 0 0 0 radius 0.030930649362474 invMass 4.03379925859301
BaseParticle id 78 indSpecies 0 position 0.380331155024158 0.21571674177822 0.403467422906805 orientation 1 0 0 0 velocity 1 0 0 angularVelocity 0 0 0 force 0 0 0 torque 0 0 0 radius 0.0359271344436935 invMass 2.57403031593766
BaseParticle id 79 indSpecies 0 position 0.473181019562126 0.352701878777983 0.589631102430046 orientation 1 0 0 0 velocity 1 0 0 angularVelocity 0 0 0 force 0 0 0 torque 0 0 0 radius 0.0261777830147144 invMass 6.65400011993843
BaseParticle id 80 indSpecies 0 position 0.0271939900450465 0.722255102617429 0.287428714067276 orientation 1 0 0 0 velocity 1 0 0 angularVelocity 0 0 0 force 0 0 0 torque 0 0 0 radius 0.0257506479597217 invMass 6.99063955851133
BaseParticle id 81 indSpecies 0 position 0.293928603833606 0.708979195254874 0.135726919271306 orientation 1 0 0 0 velocity 1 0 0 angularVelocity 0 0 0 force 0 0 0 torque 0 0 0 radius 0.0309917577439045 invMass 4.00998519539739
BaseParticle id 82 indSpecies 0 position 0.100208338722393 0.66649111391372 0.545839018611388 orientation 1 0 0 0 velocity 1 0 0 angularVelocity 0 0 0 force 0 0 0 torque 0 0 0 radius 0.0316188983262968 invMass 3.77608005362904
BaseParticle id 83 indSpecies 0 position 0.190929364700865 0.969015753856845 0.0498563861010073 orientation 1 0 0 0 velocity 1 0 0 angularVelocity 0 0 0 force 0 0 0 torque 0 0 0 radius 0.0271937423650348 invMass 5.9357343881242
BaseParticle id 84 indSpecies 0 position 0.167536236655397 0.518573951424496 0.617560579797662 orientation 1 0 0 0 velocity 1 0 0 angularVelocity 0 0 0 force 0 0 0 torque 0 0 0 radius 0.0494435101192001 invMass 0.98753730524764
BaseParticle id 85 indSpecies 0 position 0.912099632050747 0.97151491886795 0.797418597342988 orientation 1 0 0 0 velocity 1 0 0 angularVelocity 0 0 0 force 0 0 0 torque 0 0 0 radius 0.0459115581862616 invMass 1.23343224447743
BaseParticle id 86 indSpecies 0 position 0.465063640880337 0.19185031094416 0.109827281804916 orientation 1 0 0 0 velocity 1 0 0 angularVelocity 0 0 0 force 0 0 0 torque 0 0 0 radius 0.0439564589514821 invMass 1.40544319600764
BaseParticle id 87 indSpecies 0 position 0.672794113706056 0.0750368944601743 0.134619472422991 orientation 1 0 0 0 velocity 1 0 0 angularVelocity 0 0 0 force 0 0 0 torque 0 0 0 radius 0.0365773463076762 invMass 2.4391854041341
BaseParticle id 88 indSpecies 0 position 0.527500119034664 0.743427677318987 0.323728059117004 orientation 1 0 0 0 velocity 1 0 0 angularVelocity 0 0 0 force 0 0 0 torque 0 0 0 radius 0.0363044968496605 invMass 2.49459546514809
BaseParticle id 89 indSpecies 0 position 0.591930604454192 0.712844222120155 0.180153228174752 orientation 1 0 0 0 velocity 1 0 0 angularVelocity 0 0 0 force 0 0 0 torque 0 0 0 radius 0.0476560049892699 invMass 1.10288059984394
BaseParticle id 90 indSpecies 0 position 0.937371995824041 0.726231762463011 0.0830354605959398 orientation 1 0 0 0 velocity 1 0 0 angularVelocity 0 0 0 force 0 0 0 torque 0 0 0 radius 0.0373574773200252 invMass 2.28954282185181
BaseParticle id 91 indSpecies 0 position 0.703081891682852 0.785277098617258 0.736079634413049 orientation 1 0 0 0 velocity 1 0 0 angularVelocity 0 0 0 force 0 0 0 torque 0 0 0 radius 0.02625373181181 invMass 6.59641941885803
BaseParticle id 92 indSpecies 0 position 0.539801442027275 0.239813406728382 0.60986151116913 orientation 1 0 0 0 velocity 1 0 0 angularVelocity 0 0 0 force 0 0 0 torque 0 0 0 radius 0.0450386354299282 invMass 1.30654906463919
BaseParticle id 93 indSpecies 0 position 0.705185973825689 0.591978695623597 0.999761773273571 orientation 1 0 0 0 velocity 1 0 0 angularVelocity 0 0 0 force 0 0 0 torque 0 0 0 radius 0.0492765719914058 invMass 0.997608019629302
BaseParticle id 94 indSpecies 0 position 0.851137737416532 0.843651056435284 0.131521929864286 orientation 1 0 0 0 velocity 1 0 0 angularVelocity 0 0 0 force 0 0 0 torque 0 0 0 radius 0.0395022579509535 invMass 1.93649166990115
BaseParticle id 95 indSpecies 0 position 0.109330584658934 0.190947039806334 0.665667227780756 orientation 1 0 0 0 velocity 1 0 0 angularVelocity 0 0 0 force 0 0 0 torque 0 0 0 radius 0.0366317388754612 invMass 2.42833607028368
BaseParticle id 96 indSpecies 0 position 0.224532883870848 0.748745822581699 0.673992759851746 orientation 1 0 0 0 velocity 1 0 0 angularVelocity 0 0 0 force 0 0 0 torque 0 0 0 radius 0.0326763009942129 invMass 3.42123362247672
BaseParticle id 97 indSpecies 0 position 0.179315271154682 0.699749956187093 0.115207824748747 orientation 1 0 0 0 velocity 1 0 0 angularVelocity 0 0 0 force 0 0 0 torque 0 0 0 radius 0.0336712638880812 invMass 3.12682186201496
BaseParticle id 98 indSpecies 0 position 0.0384999294406735 0.271463905208312 0.226841958959734 orientation 1 0 0 0 velocity 1 0 0 angularVelocity 0 0 0 force 0 0 0 torque 0 0 0 radius 0.0256462192251886 invMass 7.07638322129241
BaseParticle id 99 indSpecies 0 position 0.61153165520026 0.104750079005258 0.260426190439215 orientation 1 0 0 0 velocity 1 0 0 angularVelocity 0 0 0 force 0 0 0 torque 0 0 0 radius 0.0313315193280911 invMass 3.8809409017129
BaseParticle id 100 indSpecies 0 position 0.502796406855063 0.747485235568615 0.658381465209293 orientation 1 0 0 0 velocity 1 0 0 angularVelocity 0 0 0 force 0 0 0 torque 0 0 0 radius 0.0335305367863871 invMass 3.16635698403229
BaseParticle id 101 indSpecies 0 position 0.995595579505341 0.99691831972737 0.891284950178783 orientation 1 0 0 0 velocity 1 0 0 angularVelocity 0 0 0 force 0 0 0 torque 0 0 0 radius 0.0271519093107994 invMass 5.96321230847148
BaseParticle id 102 indSpecies 0 position 0.687317665491886 0.897174457183877 0.876845618824618 orientation 1 0 0 0 velocity 1 0 0 angularVelocity 0 0 0 force 0 0 0 torque 0 0 0 radius 0.0368170889929994 invMass 2.39184511446729
BaseParticle id 103 indSpecies 0 position 0.0894298110255699 0.0510547160626809 0.640028805807206 orientation 1 0 0 0 velocity 1 0 0 angularVelocity 0 0 0 force 0 0 0 torque 0 0 0 radius 0.0433064376142405 invMass 1.46968416380172
BaseParticle id 104 indSpecies 0 position 0.73247711245671 0.0973088637950748 0.79928680621154 orientation 1 0 0 0 velocity 1 0 0 angularVelocity 0 0 0 force 0 0 0 torque 0 0 0 radius 0.0363567023460795 invMass 2.48386473274326
BaseParticle id 105 indSpecies 0 position 0.447312113878024 0.504525359250116 0.0233632158270449 orientation 1 0 0 0 velocity 1 0 0 angularVelocity 0 0 0 force 0 0 0 torque 0 0 0 radius 0.0367590624278146 invMass 2.4031900524864
BaseParticle id 106 indSpecies 0 position 0.619255910516476 0.582676798493902 0.672434111430837 orientation 1 0 0 0 velocity 1 0 0 angularVelocity 0 0 0 force 0 0 0 torque 0 0 0 radius 0.0419095815339264 invMass 1.62159135998969
BaseParticle id 107 indSpecies 0 position 0.231499512929933 0.128865970178632 0.86951859959446 orientation 1 0 0 0 velocity 1 0 0 angularVelocity 0 0 0 force 0 0 0 torque 0 0 0 radius 0.0369128354495557 invMass 2.37328106877746
BaseParticle id 108 indSpecies 0 position 0.713970971094469 0.958932214454811 0.613530076468801 orientation 1 0 0 0 velocity 1 0 0 angularVelocity 0 0 0 force 0 0 0 torque 0 0 0 radius 0.0442170000736462 invMass 1.38074529543253
BaseParticle id 109 indSpecies 0 position 0.103872328434259 0.230292574288051 0.829352423707626 orientation 1 0 0 0 velocity 1 0 0 angularVelocity 0 0 0 force 0 0 0 torque 0 0 0 radius 0.0360821659849115 invMass 2.54099373914599
BaseParticle id 110 indSpecies 0 position 0.188108739733593 0.397501292268279 0.417013147457491 orientation 1 0 0 0 velocity 1 0 0 angularVelocity 0 0 0 force 0 0 0 torque 0 0 0 radius 0.0317515346082721 invMass 3.72895578565124
BaseParticle id 111 indSpecies 0 position 0.97111030810409 0.702510657066004 0.624807233340286 orientation 1 0 0 0 velocity 1 0 0 angularVelocity 0 0 0 force 0 0 0 torque 0 0 0 radius 0.0334404146334198 invMass 3.19202610148152
BaseParticle id 112 indSpecies 0 position 0.380272755510849 0.517899477372039 0.217636006681587 orientation 1 0 0 0 velocity 1 0 0 angularVelocity 0 0 0 force 0 0 0 torque 0 0 0 radius 0.0474707996211172 invMass 1.1158395570464
BaseParticle id 113 indSpecies 0 position 0.700216193496977 0.174390816898653 0.298148077634957 orientation 1 0 0 0 velocity 1 0 0 angularVelocity 0 0 0 force 0 0 0 torque 0 0 0 radius 0.0348528327865528 invMass 2.81946785156315
BaseParticle id 114 indSpecies 0 position 0.173326614617064 0.907276496377516 0.170736619112327 orientation 1 0 0 0 velocity 1 0 0 angularVelocity 0 0 0 force 0 0 0 torque 0 0 0 radius 0.0270930377566434 invMass 6.00216995200974
BaseParticle id 115 indSpecies 0 position 0.115243710935821 0.18919041548931 0.978029102107483 orientation 1 0 0 0 velocity 1 0 0 angularVelocity 0 0 0 force 0 0 0 torque 0 0 0 radius 0.0445547695122814 invMass 1.34958048899586
BaseParticle id 116 indSpecies 0 position 0.0406844545708184 0.113378173566071 0.2079211490155 orientation 1 0 0 0 velocity 1 0 0 angularVelocity 0 0 0 force 0 0 0 torque 0 0 0 radius 0.0255157589071322 invMass 7.18548232115386