MercuryDPM 0.14 name InsertionBoundarySelfTest revision 6705 repository https://svn.mercurydpm.org/SourceCode/MercuryLab
dataFile    fileType ONE_FILE saveCount 10 counter 22 lastSavedTimeStep 201
fStatFile   fileType ONE_FILE saveCount 20 counter 12 lastSavedTimeStep 201
eneFile     fileType ONE_FILE saveCount 20 counter 12 lastSavedTimeStep 201
restartFile fileType ONE_FILE saveCount 20 counter 12 lastSavedTimeStep 201
statFile    fileType ONE_FILE saveCount 20 counter 0
interactionFile fileType NO_FILE saveCount 0 counter 0
xMin 0 xMax 1 yMin 0 yMax 1 zMin 0 zMax 1
timeStep 0.0001 time 0.0200999999999999 ntimeSteps 201 timeMax 0.02
systemDimensions 3 particleDimensions 3 gravity 0 0 0 backgroundDrag 0 writeVTK 0 NO_FILE NO_FILE 0 0 0 0 0 random  0 1103515245 12345 1073741824 607 273 784607267
Species 1
LinearViscoelasticSpecies id 0 density 2000 stiffness 10000 dissipation 0
Walls 0
Boundaries 1
CubeInsertionBoundary id 0 maxFailed 1 massInserted 265.785365969949 volumeInserted 0.132892682984974 numberOfParticlesInserted 576 isActivated 1 psdCount 1 psd 50 0.025 0 0.0255102040816327 0.0204081632653061 0.0260204081632653 0.0408163265306122 0.026530612244898 0.0612244897959184 0.0270408163265306 0.0816326530612245 0.0275510204081633 0.102040816326531 0.0280612244897959 0.122448979591837 0.0285714285714286 0.142857142857143 0.0290816326530612 0.163265306122449 0.0295918367346939 0.183673469387755 0.0301020408163265 0.204081632653061 0.0306122448979592 0.224489795918367 0.0311224489795918 0.244897959183673 0.0316326530612245 0.26530612244898 0.0321428571428571 0.285714285714286 0.0326530612244898 0.306122448979592 0.0331632653061224 0.326530612244898 0.0336734693877551 0.346938775510204 0.0341836734693877 0.36734693877551 0.0346938775510204 0.387755102040816 0.035204081632653 0.408163265306123 0.0357142857142857 0.428571428571429 0.0362244897959184 0.448979591836735 0.036734693877551 0.469387755102041 0.0372448979591837 0.489795918367347 0.0377551020408163 0.510204081632653 0.038265306122449 0.530612244897959 0.0387755102040816 0.551020408163266 0.0392857142857143 0.571428571428572 0.0397959183673469 0.591836734693878 0.0403061224489796 0.612244897959184 0.0408163265306122 0.63265306122449 0.0413265306122449 0.653061224489796 0.0418367346938775 0.673469387755102 0.0423469387755102 0.693877551020409 0.0428571428571428 0.714285714285715 0.0433673469387755 0.734693877551021 0.0438775510204081 0.755102040816327 0.0443877551020408 0.775510204081633 0.0448979591836734 0.795918367346939 0.0454081632653061 0.816326530612245 0.0459183673469387 0.836734693877552 0.0464285714285714 0.857142857142858 0.046938775510204 0.877551020408164 0.0474489795918367 0.89795918367347 0.0479591836734694 0.918367346938776 0.048469387755102 0.938775510204082 0.0489795918367347 0.959183673469388 0.0494897959183673 0.979591836734695 0.05 1 initialVolume 0 samplingInterval 0 variableCumulativeVolumeFlowRate 0 particleToCopy 1 BaseParticle id 0 indSpecies 0 position 0 0 0 orientation 1 0 0 0 velocity 0 0 0 angularVelocity 0 0 0 force 0 0 0 torque 0 0 0 radius 1 invMass 1 posMin 0 0 0 posMax 1 1 1 velMin 1 0 0 velMax 1 0 0
Particles 576
BaseParticle id 0 indSpecies 0 position 0.482818009347822 0.451551026244135 0.84762122589385 orientation 1 0 0 0 velocity 1 0 0 angularVelocity 0 0 0 force 0 0 0 torque 0 0 0 radius 0.0402809254034094 invMass 1.82634608056257
BaseParticle id 1 indSpecies 0 position 0.433787151301476 0.0993150145753146 0.771077505526061 orientation 1 0 0 0 velocity 1 0 0 angularVelocity 0 0 0 force 0 0 0 torque 0 0 0 radius 0.0462402951690952 invMass 1.2073122354096
BaseParticle id 2 indSpecies 0 position 0.615721126910557 0.926644036614668 0.072714161991408 orientation 1 0 0 0 velocity 1 0 0 angularVelocity 0 0 0 force 0 0 0 torque 0 0 0 radius 0.0469187064390297 invMass 1.1556951881261
BaseParticle id 3 indSpecies 0 position 0.213444608530545 0.803075776618835 0.214465732486485 orientation 1 0 0 0 velocity 1 0 0 angularVelocity 0 0 0 force 0 0 0 torque 0 0 0 radius 0.0461656453409019 invMass 1.21317838080649
BaseParticle id 4 indSpecies 0 position 0.311641582463268 0.651623650778435 0.306274980952707 orientation 1 0 0 0 velocity 1 0 0 angularVelocity 0 0 0 force 0 0 0 torque 0 0 0 radius 0.0405333565671891 invMass 1.792436122549
BaseParticle id 5 indSpecies 0 position 0.228331886484908 0.969839190161005 0.537878006195763 orientation 1 0 0 0 velocity 1 0 0 angularVelocity 0 0 0 force 0 0 0 torque 0 0 0 radius 0.0342680083110642 invMass 2.96629817358435
BaseParticle id 6 indSpecies 0 position 0.98559865124002 0.187199103471638 0.751426060915528 orientation 1 0 0 0 velocity 1 0 0 angularVelocity 0 0 0 force 0 0 0 torque 0 0 0 radius 0.0323575532334161 invMass 3.52333852107824
BaseParticle id 7 indSpecies 0 position 0.148699160061123 0.306166582455703 0.591826113321049 orientation 1 0 0 0 velocity 1 0 0 angularVelocity 0 0 0 force 0 0 0 torque 0 0 0 radius 0.0261331960098342 invMass 6.68811631519362
BaseParticle id 8 indSpecies 0 position 0.792737262050864 0.846877715692969 0.788350858922721 orientation 1 0 0 0 velocity 1 0 0 angularVelocity 0 0 0 force 0 0 0 torque 0 0 0 radius 0.0319591028355419 invMass 3.65677010209454
BaseParticle id 9 indSpecies 0 position 0.910366296386003 0.611222965073564 0.680974906607554 orientation 1 0 0 0 velocity 1 0 0 angularVelocity 0 0 0 force 0 0 0 torque 0 0 0 radius 0.0370379640431185 invMass 2.34930865054714
BaseParticle id 10 indSpecies 0 position 0.915757810309753 0.425251628807512 0.7872364187732 orientation 1 0 0 0 velocity 1 0 0 angularVelocity 0 0 0 force 0 0 0 torque 0 0 0 radius 0.0450019042827528 invMass 1.30975094431509
BaseParticle id 11 indSpecies 0 position 0.460465642660421 0.0549294957379536 0.0311985714070513 orientation 1 0 0 0 velocity 1 0 0 angularVelocity 0 0 0 force 0 0 0 torque 0 0 0 radius 0.0369801625485955 invMass 2.36034207250692
BaseParticle id 12 indSpecies 0 position 0.83659889703933 0.772353886838673 0.455273494631729 orientation 1 0 0 0 velocity 1 0 0 angularVelocity 0 0 0 force 0 0 0 torque 0 0 0 radius 0.035078339351299 invMass 2.7654405042476
BaseParticle id 13 indSpecies 0 position 0.830699480762052 0.967712630547851 0.58317498808431 orientation 1 0 0 0 velocity 1 0 0 angularVelocity 0 0 0 force 0 0 0 torque 0 0 0 radius 0.0454245613861351 invMass 1.27352996364608
BaseParticle id 14 indSpecies 0 position 0.276943308509006 0.332247916299619 0.0975970969557789 orientation 1 0 0 0 velocity 1 0 0 angularVelocity 0 0 0 force 0 0 0 torque 0 0 0 radius 0.0334018306526953 invMass 3.20310064993524
BaseParticle id 15 indSpecies 0 position 0.71096367741845 0.48267025548716 0.76193224195211 orientation 1 0 0 0 velocity 1 0 0 angularVelocity 0 0 0 force 0 0 0 torque 0 0 0 radius 0.0409385602284207 invMass 1.73973740260541
BaseParticle id 16 indSpecies 0 position 0.450958077841475 0.324626619625253 0.0506626339157461 orientation 1 0 0 0 velocity 1 0 0 angularVelocity 0 0 0 force 0 0 0 torque 0 0 0 radius 0.034671512586232 invMass 2.86393415587483
BaseParticle id 17 indSpecies 0 position 0.464340212788114 0.262642771692348 0.849237541808526 orientation 1 0 0 0 velocity 1 0 0 angularVelocity 0 0 0 force 0 0 0 torque 0 0 0 radius 0.0485201007290032 invMass 1.04500005577539
BaseParticle id 18 indSpecies 0 position 0.645728522775945 0.75768998194701 0.841023461109937 orientation 1 0 0 0 velocity 1 0 0 angularVelocity 0 0 0 force 0 0 0 torque 0 0 0 radius 0.0281238836211198 invMass 5.36605992945001
BaseParticle id 19 indSpecies 0 position 0.0770846078385748 0.0911323026836548 0.444778516474386 orientation 1 0 0 0 velocity 1 0 0 angularVelocity 0 0 0 force 0 0 0 torque 0 0 0 radius 0.0466151656570323 invMass 1.17841889995029
BaseParticle id 20 indSpecies 0 position 0.272319567601828 0.747495385122024 0.84527385714904 orientation 1 0 0 0 velocity 1 0 0 angularVelocity 0 0 0 force 0 0 0 torque 0 0 0 radius 0.0371393908305882 invMass 2.33011345066062
BaseParticle id 21 indSpecies 0 position 0.803926210567422 0.121918775959016 0.0755647597130715 orientation 1 0 0 0 velocity 1 0 0 angularVelocity 0 0 0 force 0 0 0 torque 0 0 0 radius 0.045283353631841 invMass 1.28548095545871
BaseParticle id 22 indSpecies 0 position 0.461164535990761 0.472578531622348 0.618409596738955 orientation 1 0 0 0 velocity 1 0 0 angularVelocity 0 0 0 force 0 0 0 torque 0 0 0 radius 0.0380084711483817 invMass 2.17390315238116
BaseParticle id 23 indSpecies 0 position 0.884861215590626 0.102355983944278 0.832432083010271 orientation 1 0 0 0 velocity 1 0 0 angularVelocity 0 0 0 force 0 0 0 torque 0 0 0 radius 0.0422116851233062 invMass 1.58702338215964
BaseParticle id 24 indSpecies 0 position 0.554517348246165 0.0837098461727521 0.522019398843852 orientation 1 0 0 0 velocity 1 0 0 angularVelocity 0 0 0 force 0 0 0 torque 0 0 0 radius 0.0432086735055312 invMass 1.4796826913279
BaseParticle id 25 indSpecies 0 position 0.758148986605786 0.559428380281266 0.700997407826597 orientation 1 0 0 0 velocity 1 0 0 angularVelocity 0 0 0 force 0 0 0 torque 0 0 0 radius 0.0395311378683396 invMass 1.93225059246863
BaseParticle id 26 indSpecies 0 position 0.456748553592012 0.597098215858361 0.575679571762979 orientation 1 0 0 0 velocity 1 0 0 angularVelocity 0 0 0 force 0 0 0 torque 0 0 0 radius 0.03860648561991 invMass 2.07443861130523
BaseParticle id 27 indSpecies 0 position 0.901635907216334 0.0587385044817452 0.252225785281299 orientation 1 0 0 0 velocity 1 0 0 angularVelocity 0 0 0 force 0 0 0 torque 0 0 0 radius 0.0442999156060932 invMass 1.37300683252149
BaseParticle id 28 indSpecies 0 position 0.290183332944116 0.154171871809129 0.07775785487354 orientation 1 0 0 0 velocity 1 0 0 angularVelocity 0 0 0 force 0 0 0 torque 0 0 0 radius 0.027964554734256 invMass 5.45830335931663
BaseParticle id 29 indSpecies 0 position 0.358039195781535 0.327630155414687 0.586293312174926 orientation 1 0 0 0 velocity 1 0 0 angularVelocity 0 0 0 force 0 0 0 torque 0 0 0 radius 0.0371395812660543 invMass 2.33007760744829
BaseParticle id 30 indSpecies 0 position 0.251989321082838 0.758287987896904 0.523946741107901 orientation 1 0 0 0 velocity 1 0 0 angularVelocity 0 0 0 force 0 0 0 torque 0 0 0 radius 0.0300355689359008 invMass 4.40528293366954
BaseParticle id 31 indSpecies 0 position 0.171729742855083 0.544205111875939 0.921347505486247 orientation 1 0 0 0 velocity 1 0 0 angularVelocity 0 0 0 force 0 0 0 torque 0 0 0 radius 0.0438219435066439 invMass 1.41842537205082
BaseParticle id 32 indSpecies 0 position 0.559809540342715 0.747160042871572 0.531534103181647 orientation 1 0 0 0 velocity 1 0 0 angularVelocity 0 0 0 force 0 0 0 torque 0 0 0 radius 0.0303005267939189 invMass 4.29072675004292
BaseParticle id 33 indSpecies 0 position 0.925490531674127 0.836178721081299 0.117204199435931 orientation 1 0 0 0 velocity 1 0 0 angularVelocity 0 0 0 force 0 0 0 torque 0 0 0 radius 0.0282521987262793 invMass 5.29327719891471
BaseParticle id 34 indSpecies 0 position 0.178523266987386 0.970729528953573 0.969606445199245 orientation 1 0 0 0 velocity 1 0 0 angularVelocity 0 0 0 force 0 0 0 torque 0 0 0 radius 0.032712801427433 invMass 3.40979431855097
BaseParticle id 35 indSpecies 0 position 0.589164710520611 0.588207174476043 0.884957535299512 orientation 1 0 0 0 velocity 1 0 0 angularVelocity 0 0 0 force 0 0 0 torque 0 0 0 radius 0.0289111896262105 invMass 4.93950589856311
BaseParticle id 36 indSpecies 0 position 0.137705129908671 0.417646053789513 0.800067577697274 orientation 1 0 0 0 velocity 1 0 0 angularVelocity 0 0 0 force 0 0 0 torque 0 0 0 radius 0.0301562510727799 invMass 4.35260587194599
BaseParticle id 37 indSpecies 0 position 0.47804487871188 0.0235067689572397 0.956917095038186 orientation 1 0 0 0 velocity 1 0 0 angularVelocity 0 0 0 force 0 0 0 torque 0 0 0 radius 0.0342153265655043 invMass 2.98002101494707
BaseParticle id 38 indSpecies 0 position 0.173984927428898 0.10402804230896 0.730118187395746 orientation 1 0 0 0 velocity 1 0 0 angularVelocity 0 0 0 force 0 0 0 torque 0 0 0 radius 0.0478432014752935 invMass 1.08998543687068
BaseParticle id 39 indSpecies 0 position 0.0509774744967214 0.418329746072805 0.686011585699383 orientation 1 0 0 0 velocity 1 0 0 angularVelocity 0 0 0 force 0 0 0 torque 0 0 0 radius 0.0367104339304759 invMass 2.41275286993855
BaseParticle id 40 indSpecies 0 position 0.732188435055138 0.128010361336162 0.439465037137768 orientation 1 0 0 0 velocity 1 0 0 angularVelocity 0 0 0 force 0 0 0 torque 0 0 0 radius 0.0407958624313557 invMass 1.75805735397273
BaseParticle id 41 indSpecies 0 position 1.01520420004129 0.684156378093961 0.893831915320985 orientation 1 0 0 0 velocity 1 0 0 angularVelocity 0 0 0 force 0 0 0 torque 0 0 0 radius 0.0478494488075358 invMass 1.08955855971904
BaseParticle id 42 indSpecies 0 position 0.472537240970377 0.833900956591683 0.276064363982468 orientation 1 0 0 0 velocity 1 0 0 angularVelocity 0 0 0 force 0 0 0 torque 0 0 0 radius 0.0271098279421313 invMass 5.99102471592613
BaseParticle id 43 indSpecies 0 position 0.897292337941663 0.169700750923063 0.961445872707809 orientation 1 0 0 0 velocity 1 0 0 angularVelocity 0 0 0 force 0 0 0 torque 0 0 0 radius 0.0492241610397586 invMass 1.00079799432301
BaseParticle id 44 indSpecies 0 position 0.392486540700785 0.6034812148628 0.29246981694133 orientation 1 0 0 0 velocity 1 0 0 angularVelocity 0 0 0 force 0 0 0 torque 0 0 0 radius 0.0418347644972843 invMass 1.6303070607022
BaseParticle id 45 indSpecies 0 position 0.364772310606414 0.190150813022488 0.242646593374529 orientation 1 0 0 0 velocity 1 0 0 angularVelocity 0 0 0 force 0 0 0 torque 0 0 0 radius 0.0294007297306087 invMass 4.69685405539937
BaseParticle id 46 indSpecies 0 position 0.0757559420766726 0.166009553553528 0.388066255126087 orientation 1 0 0 0 velocity 1 0 0 angularVelocity 0 0 0 force 0 0 0 torque 0 0 0 radius 0.0339033386009207 invMass 3.0630493491012
BaseParticle id 47 indSpecies 0 position 0.57772776756647 0.698103582767673 0.918470906169646 orientation 1 0 0 0 velocity 1 0 0 angularVelocity 0 0 0 force 0 0 0 torque 0 0 0 radius 0.0434777444867249 invMass 1.45238039275227
BaseParticle id 48 indSpecies 0 position 0.616129184033599 0.183183245190249 0.912038071162963 orientation 1 0 0 0 velocity 1 0 0 angularVelocity 0 0 0 force 0 0 0 torque 0 0 0 radius 0.0399062741468879 invMass 1.87826925566788
BaseParticle id 49 indSpecies 0 position 0.901592285929625 0.331543695804157 0.0720295011326395 orientation 1 0 0 0 velocity 1 0 0 angularVelocity 0 0 0 force 0 0 0 torque 0 0 0 radius 0.0326901458396446 invMass 3.41688860732409
BaseParticle id 50 indSpecies 0 position 0.471786094855714 0.672104408338569 0.551819820374418 orientation 1 0 0 0 velocity 1 0 0 angularVelocity 0 0 0 force 0 0 0 torque 0 0 0 radius 0.0255699766032488 invMass 7.13987162300611
BaseParticle id 51 indSpecies 0 position 0.524512335635242 0.210314038013747 0.429588166596752 orientation 1 0 0 0 velocity 1 0 0 angularVelocity 0 0 0 force 0 0 0 torque 0 0 0 radius 0.0412860058114413 invMass 1.69618331546297
BaseParticle id 52 indSpecies 0 position 0.780633111222987 0.895836357124302 0.0326430303671927 orientation 1 0 0 0 velocity 1 0 0 angularVelocity 0 0 0 force 0 0 0 torque 0 0 0 radius 0.0484752478545533 invMass 1.04790347394223
BaseParticle id 53 indSpecies 0 position 0.676577938556131 0.429913051957346 0.329004984042603 orientation 1 0 0 0 velocity 1 0 0 angularVelocity 0 0 0 force 0 0 0 torque 0 0 0 radius 0.0408230991687207 invMass 1.75454082972718
BaseParticle id 54 indSpecies 0 position 0.169347147765244 0.537468226125959 0.813237801368127 orientation 1 0 0 0 velocity 1 0 0 angularVelocity 0 0 0 force 0 0 0 torque 0 0 0 radius 0.0412663852151831 invMass 1.69860387789762
BaseParticle id 55 indSpecies 0 position 0.739495214783123 0.957208542193092 0.965816446611829 orientation 1 0 0 0 velocity 1 0 0 angularVelocity 0 0 0 force 0 0 0 torque 0 0 0 radius 0.0496073067772829 invMass 0.977787422759443
BaseParticle id 56 indSpecies 0 position 0.124003962963816 0.805637136282737 0.654154038378825 orientation 1 0 0 0 velocity 1 0 0 angularVelocity 0 0 0 force 0 0 0 torque 0 0 0 radius 0.0395353743440602 invMass 1.93162949890027
BaseParticle id 57 indSpecies 0 position 0.711056287203861 0.792814079865055 0.424296728871486 orientation 1 0 0 0 velocity 1 0 0 angularVelocity 0 0 0 force 0 0 0 torque 0 0 0 radius 0.0355591526451716 invMass 2.65477173278508
BaseParticle id 58 indSpecies 0 position 0.869068330741422 0.92023832824059 0.220323394778815 orientation 1 0 0 0 velocity 1 0 0 angularVelocity 0 0 0 force 0 0 0 torque 0 0 0 radius 0.0371121542059226 invMass 2.33524743019946
BaseParticle id 59 indSpecies 0 position 0.88329327908969 0.268780345778185 0.426595558946398 orientation 1 0 0 0 velocity 1 0 0 angularVelocity 0 0 0 force 0 0 0 torque 0 0 0 radius 0.0405346963281428 invMass 1.79225839654328
BaseParticle id 60 indSpecies 0 position 0.674179626466537 0.44658502615375 0.00838929600232352 orientation 1 0 0 0 velocity 1 0 0 angularVelocity 0 0 0 force 0 0 0 torque 0 0 0 radius 0.0333865442552274 invMass 3.20750238957257
BaseParticle id 61 indSpecies 0 position 0.456484353210324 0.447910011328841 0.377591434514531 orientation 1 0 0 0 velocity 1 0 0 angularVelocity 0 0 0 force 0 0 0 torque 0 0 0 radius 0.0423148654122846 invMass 1.57544230527171
BaseParticle id 62 indSpecies 0 position 0.82457265600136 0.434560947646796 0.111988612346362 orientation 1 0 0 0 velocity 1 0 0 angularVelocity 0 0 0 force 0 0 0 torque 0 0 0 radius 0.0328862829076658 invMass 3.35611651126548
BaseParticle id 63 indSpecies 0 position 0.393211025844129 0.0324110006611691 0.396378131214177 orientation 1 0 0 0 velocity 1 0 0 angularVelocity 0 0 0 force 0 0 0 torque 0 0 0 radius 0.0448270772417747 invMass 1.32513499917646
BaseParticle id 64 indSpecies 0 position 0.401129850278485 0.52633974652147 0.904574840418459 orientation 1 0 0 0 velocity 1 0 0 angularVelocity 0 0 0 force 0 0 0 torque 0 0 0 radius 0.048709703305642 invMass 1.03284450251452
BaseParticle id 65 indSpecies 0 position 0.367447213393217 0.224759218073674 0.857333733833084 orientation 1 0 0 0 velocity 1 0 0 angularVelocity 0 0 0 force 0 0 0 torque 0 0 0 radius 0.0416000936027032 invMass 1.6580532398997
BaseParticle id 66 indSpecies 0 position 0.769967138515814 0.37202677654845 0.879528883956811 orientation 1 0 0 0 velocity 1 0 0 angularVelocity 0 0 0 force 0 0 0 torque 0 0 0 radius 0.0251709130300146 invMass 7.48487389499734
BaseParticle id 67 indSpecies 0 position 0.433191745604208 0.862548099958759 0.764502656865397 orientation 1 0 0 0 velocity 1 0 0 angularVelocity 0 0 0 force 0 0 0 torque 0 0 0 radius 0.0405512966474863 invMass 1.79005822887649
BaseParticle id 68 indSpecies 0 position 0.529112105230694 0.0871099707790557 0.891209776614597 orientation 1 0 0 0 velocity 1 0 0 angularVelocity 0 0 0 force 0 0 0 torque 0 0 0 radius 0.0423421826882322 invMass 1.57239505805678
BaseParticle id 69 indSpecies 0 position 0.275437293783352 0.121758572643847 0.302552368210114 orientation 1 0 0 0 velocity 1 0 0 angularVelocity 0 0 0 force 0 0 0 torque 0 0 0 radius 0.0491707627807985 invMass 1.00406206369735
BaseParticle id 70 indSpecies 0 position 0.851239288829973 0.348887757073261 0.138253928033399 orientation 1 0 0 0 velocity 1 0 0 angularVelocity 0 0 0 force 0 0 0 torque 0 0 0 radius 0.0474329183825084 invMass 1.11851511354408
BaseParticle id 71 indSpecies 0 position 0.863299946893656 0.399289263971812 0.395847791437201 orientation 1 0 0 0 velocity 1 0 0 angularVelocity 0 0 0 force 0 0 0 torque 0 0 0 radius 0.0372593907030028 invMass 2.3076723635767
BaseParticle id 72 indSpecies 0 position 0.946583688774532 0.311073244259625 0.671837767891737 orientation 1 0 0 0 velocity 1 0 0 angularVelocity 0 0 0 force 0 0 0 torque 0 0 0 radius 0.0261581530794666 invMass 6.66899150354294
BaseParticle id 73 indSpecies 0 position 0.250914911040182 0.895743060954154 0.31421760347279 orientation 1 0 0 0 velocity 1 0 0 angularVelocity 0 0 0 force 0 0 0 torque 0 0 0 radius 0.036680203322388 invMass 2.41872332077215
BaseParticle id 74 indSpecies 0 position 0.999059847091267 0.066555139546697 0.246774849252054 orientation 1 0 0 0 velocity 1 0 0 angularVelocity 0 0 0 force 0 0 0 torque 0 0 0 radius 0.0250105122689662 invMass 7.62980842890393
BaseParticle id 75 indSpecies 0 position 0.416235022324848 0.173372368166808 0.539767896253832 orientation 1 0 0 0 velocity 1 0 0 angularVelocity 0 0 0 force 0 0 0 torque 0 0 0 radius 0.0358960024732241 invMass 2.58073335942774
BaseParticle id 76 indSpecies 0 position 0.30126145128043 0.635616950098782 0.0954264774029828 orientation 1 0 0 0 velocity 1 0 0 angularVelocity 0 0 0 force 0 0 0 torque 0 0 0 radius 0.0489797194914976 invMass 1.01585685205468
BaseParticle id 77 indSpecies 0 position 0.162968914338415 0.735978252500316 0.406718544283213 orientation 1 0 0 0 velocity 1 0 0 angularVelocity 0 0 0 force 0 0 0 torque 0 0 0 radius 0.0338710311319268 invMass 3.07182266863955
BaseParticle id 78 indSpecies 0 position 0.380331155024158 0.21571674177822 0.403467422906805 orientation 1 0 0 0 velocity 1 0 0 angularVelocity 0 0 0 force 0 0 0 torque 0 0 0 radius 0.0369572534290609 invMass 2.36473419148205
BaseParticle id 79 indSpecies 0 position 0.473181019562126 0.352701878777983 0.589631102430046 orientation 1 0 0 0 velocity 1 0 0 angularVelocity 0 0 0 force 0 0 0 torque 0 0 0 radius 0.0419671438122622 invMass 1.6149279670784
BaseParticle id 80 indSpecies 0 position 0.0271939900450465 0.722255102617429 0.287428714067276 orientation 1 0 0 0 velocity 1 0 0 angularVelocity 0 0 0 force 0 0 0 torque 0 0 0 radius 0.0473758577714145 invMass 1.1225614818776
BaseParticle id 81 indSpecies 0 position 0.446923565168934 0.0802083387223926 0.66649111391372 orientation 1 0 0 0 velocity 1 0 0 angularVelocity 0 0 0 force 0 0 0 torque 0 0 0 radius 0.0474522764411666 invMass 1.11714678407716
BaseParticle id 82 indSpecies 0 position 0.12202670739775 0.170929364700867 0.969015753856845 orientation 1 0 0 0 velocity 1 0 0 angularVelocity 0 0 0 force 0 0 0 torque 0 0 0 radius 0.0302937323847444 invMass 4.29361442580347
BaseParticle id 83 indSpecies 0 position 0.49634842109275 0.147536236655399 0.518573951424496 orientation 1 0 0 0 velocity 1 0 0 angularVelocity 0 0 0 force 0 0 0 torque 0 0 0 radius 0.0389315028446903 invMass 2.0229161827402
BaseParticle id 84 indSpecies 0 position 0.830611832893347 0.760681434757373 0.652794113706058 orientation 1 0 0 0 velocity 1 0 0 angularVelocity 0 0 0 force 0 0 0 torque 0 0 0 radius 0.0372757759744686 invMass 2.30463055811423
BaseParticle id 85 indSpecies 0 position 0.134607550858419 0.31773945100816 0.507500119034666 orientation 1 0 0 0 velocity 1 0 0 angularVelocity 0 0 0 force 0 0 0 torque 0 0 0 radius 0.0474900893477809 invMass 1.11448039987944
BaseParticle id 86 indSpecies 0 position 0.740322967597446 0.332382033269496 0.274100038899016 orientation 1 0 0 0 velocity 1 0 0 angularVelocity 0 0 0 force 0 0 0 torque 0 0 0 radius 0.0483996311280331 invMass 1.05282269903223
BaseParticle id 87 indSpecies 0 position 0.217275197711049 0.917397117319147 0.651353690166628 orientation 1 0 0 0 velocity 1 0 0 angularVelocity 0 0 0 force 0 0 0 torque 0 0 0 radius 0.0275140245653882 invMass 5.73084988943247
BaseParticle id 88 indSpecies 0 position 0.0326482032284622 0.705311519368262 0.849644390074867 orientation 1 0 0 0 velocity 1 0 0 angularVelocity 0 0 0 force 0 0 0 torque 0 0 0 radius 0.0318325460979278 invMass 3.70055842259889
BaseParticle id 89 indSpecies 0 position 0.543761444067337 0.389925614567543 0.519801442027277 orientation 1 0 0 0 velocity 1 0 0 angularVelocity 0 0 0 force 0 0 0 torque 0 0 0 radius 0.0252762865361138 invMass 7.39165324458812
BaseParticle id 90 indSpecies 0 position 0.379638514423612 0.333067357229937 0.685185973825691 orientation 1 0 0 0 velocity 1 0 0 angularVelocity 0 0 0 force 0 0 0 torque 0 0 0 radius 0.0462883867928398 invMass 1.20355310873504
BaseParticle id 91 indSpecies 0 position 0.0215523376091825 0.826561608513294 0.831137737416534 orientation 1 0 0 0 velocity 1 0 0 angularVelocity 0 0 0 force 0 0 0 torque 0 0 0 radius 0.0409635036776952 invMass 1.73656126074317
BaseParticle id 92 indSpecies 0 position 0.695496889410541 0.716687406677113 0.93205480563263 orientation 1 0 0 0 velocity 1 0 0 angularVelocity 0 0 0 force 0 0 0 torque 0 0 0 radius 0.046312285717256 invMass 1.20169083069723
BaseParticle id 93 indSpecies 0 position 0.798732942453366 0.105986392958102 0.583995338916783 orientation 1 0 0 0 velocity 1 0 0 angularVelocity 0 0 0 force 0 0 0 torque 0 0 0 radius 0.031136847931243 invMass 3.95418931421318
BaseParticle id 94 indSpecies 0 position 0.950480266815999 0.13952367646664 0.218292682228337 orientation 1 0 0 0 velocity 1 0 0 angularVelocity 0 0 0 force 0 0 0 torque 0 0 0 radius 0.0349524403913972 invMass 2.7954316878601
BaseParticle id 95 indSpecies 0 position 0.554412906768811 0.901226403283676 0.17405660341116 orientation 1 0 0 0 velocity 1 0 0 angularVelocity 0 0 0 force 0 0 0 torque 0 0 0 radius 0.0392406873823434 invMass 1.97547517293275
BaseParticle id 96 indSpecies 0 position 0.102973634576916 0.354076974695477 0.899347657431525 orientation 1 0 0 0 velocity 1 0 0 angularVelocity 0 0 0 force 0 0 0 torque 0 0 0 radius 0.0295499578730116 invMass 4.62605505246728
BaseParticle id 97 indSpecies 0 position 0.395477288329993 0.789416384148024 0.39921243451609 orientation 1 0 0 0 velocity 1 0 0 angularVelocity 0 0 0 force 0 0 0 torque 0 0 0 radius 0.0346323486220792 invMass 2.87366118043596
BaseParticle id 98 indSpecies 0 position 0.0856826791836117 0.459180453364569 0.0489701050808931 orientation 1 0 0 0 velocity 1 0 0 angularVelocity 0 0 0 force 0 0 0 torque 0 0 0 radius 0.0289920171427894 invMass 4.89830807973644
BaseParticle id 99 indSpecies 0 position 0.836705293022834 0.91463232514017 0.357483507732411 orientation 1 0 0 0 velocity 1 0 0 angularVelocity 0 0 0 force 0 0 0 torque 0 0 0 radius 0.0388207643764192 invMass 2.04027706669556
BaseParticle id 100 indSpecies 0 position 0.727721957107797 0.197156201864447 0.689581509968656 orientation 1 0 0 0 velocity 1 0 0 angularVelocity 0 0 0 force 0 0 0 torque 0 0 0 radius 0.0426106496111511 invMass 1.54286145563269
BaseParticle id 101 indSpecies 0 position 0.7479158254057 0.740168169382803 0.621600835005193 orientation 1 0 0 0 velocity 1 0 0 angularVelocity 0 0 0 force 0 0 0 torque 0 0 0 radius 0.0325840075520475 invMass 3.45038773867498
BaseParticle id 102 indSpecies 0 position 0.953495272774252 0.181319840083532 0.0227308962282438 orientation 1 0 0 0 velocity 1 0 0 angularVelocity 0 0 0 force 0 0 0 torque 0 0 0 radius 0.0361065739082539 invMass 2.53584411200884
BaseParticle id 103 indSpecies 0 position 0.946909793066408 0.921308662815663 0.74229058647315 orientation 1 0 0 0 velocity 1 0 0 angularVelocity 0 0 0 force 0 0 0 torque 0 0 0 radius 0.0443626388351265 invMass 1.36719128234951
BaseParticle id 104 indSpecies 0 position 0.505912069055797 0.0120706520862219 0.6344284595601 orientation 1 0 0 0 velocity 1 0 0 angularVelocity 0 0 0 force 0 0 0 torque 0 0 0 radius 0.0349955022245684 invMass 2.7851250761493
BaseParticle id 105 indSpecies 0 position 0.847913126898543 0.471422632717134 0.581402318010663 orientation 1 0 0 0 velocity 1 0 0 angularVelocity 0 0 0 force 0 0 0 torque 0 0 0 radius 0.046986795366118 invMass 1.15067828479071
BaseParticle id 106 indSpecies 0 position 0.0576983515730148 0.318780924827996 0.773756099144224 orientation 1 0 0 0 velocity 1 0 0 angularVelocity 0 0 0 force 0 0 0 torque 0 0 0 radius 0.0411698301355972 invMass 1.71058307095783
BaseParticle id 107 indSpecies 0 position 0.827134609509132 0.294698657193502 0.280183364376255 orientation 1 0 0 0 velocity 1 0 0 angularVelocity 0 0 0 force 0 0 0 torque 0 0 0 radius 0.0421822841417381 invMass 1.5903441535939
BaseParticle id 108 indSpecies 0 position 0.319359791293403 0.900140695366878 0.962876784649792 orientation 1 0 0 0 velocity 1 0 0 angularVelocity 0 0 0 force 0 0 0 torque 0 0 0 radius 0.0367292403730634 invMass 2.40904856772419
BaseParticle id 109 indSpecies 0 position 0.376465874499205 0.358671551236257 0.188880599859282 orientation 1 0 0 0 velocity 1 0 0 angularVelocity 0 0 0 force 0 0 0 torque 0 0 0 radius 0.0490051146524832 invMass 1.01427837507512
BaseParticle id 110 indSpecies 0 position 0.30974380841968 0.165717257032434 0.692984631571002 orientation 1 0 0 0 velocity 1 0 0 angularVelocity 0 0 0 force 0 0 0 torque 0 0 0 radius 0.0277071971449513 invMass 5.61181842300951
BaseParticle id 111 indSpecies 0 position 0.960354455909359 0.843093314354221 0.297186369730917 orientation 1 0 0 0 velocity 1 0 0 angularVelocity 0 0 0 force 0 0 0 torque 0 0 0 radius 0.0440897135552743 invMass 1.3927384424423
BaseParticle id 112 indSpecies 0 position 0.893179586382413 0.197913468631065 0.0841371677032328 orientation 1 0 0 0 velocity 1 0 0 angularVelocity 0 0 0 force 0 0 0 torque 0 0 0 radius 0.0356228637964165 invMass 2.64055309146605
BaseParticle id 113 indSpecies 0 position 0.905749704902291 0.62897424341275 0.992522522814085 orientation 1 0 0 0 velocity 1 0 0 angularVelocity 0 0 0 force 0 0 0 torque 0 0 0 radius 0.0422976965371637 invMass 1.57736152700734
BaseParticle id 114 indSpecies 0 position 0.239997411048972 0.301521164084299 0.622601993733456 orientation 1 0 0 0 velocity 1 0 0 angularVelocity 0 0 0 force 0 0 0 torque 0 0 0 radius 0.0315101951594514 invMass 3.81529493531962
BaseParticle id 115 indSpecies 0 position 1.01943244330172 0.690677216564605 0.674044344877783 orientation 1 0 0 0 velocity 1 0 0 angularVelocity 0 0 0 force 0 0 0 torque 0 0 0 radius 0.0329858682240138 invMass 3.32581154086884
BaseParticle id 116 indSpecies 0 position 0.828939107531736 0.457278326659204 0.31294365104945 orientation 1 0 0 0 velocity 1 0 0 angularVelocity 0 0 0 force 0 0 0 torque 0 0 0 radius 0.0493339822844748 invMass 0.99412930112535