MercuryDPM 0.14 name LeesEdwardsSelfTest revision 5000 repository https://svn.mercurydpm.org/SourceCode/MercuryLab
dataFile    fileType ONE_FILE saveCount 100 counter 42 lastSavedTimeStep 4001
fStatFile   fileType ONE_FILE saveCount 100 counter 42 lastSavedTimeStep 4001
eneFile     fileType ONE_FILE saveCount 100 counter 42 lastSavedTimeStep 4001
restartFile fileType ONE_FILE saveCount 100 counter 42 lastSavedTimeStep 4001
statFile    fileType ONE_FILE saveCount 100 counter 0
interactionFile fileType NO_FILE saveCount 0 counter 0
xMin 0 xMax 15 yMin 0 yMax 15 zMin 0 zMax 1
timeStep 0.001 time 4.00099999999967 ntimeSteps 4001 timeMax 4
systemDimensions 2 particleDimensions 2 gravity 0 0 0 writeVTK 0 NO_FILE NO_FILE 0 0 0 0 random  0 1103515245 12345 1073741824 607 273 784607267 xBallsArguments -w0 -v0 -solidf -cmode 5
Species 1
LinearViscoelasticSlidingFrictionSpecies id 0 density 1.27323954473516 stiffness 1974.4470806277 dissipation 1.02586588775104 slidingStiffness 564.127737322199 slidingDissipation 0.293104539357432 slidingFrictionCoefficient 0.5 slidingFrictionCoefficientStatic 0.5
Walls 0
Boundaries 1
LeesEdwardsBoundary id 0 left 0 right 15 down 0 up 15 shift 60.0149999999951 vel 15
Particles 233
BaseParticle id 0 indSpecies 0 position 4.17215505194494 6.21031949025894 0 orientation -0.380330298637474 0 0 0.924850725219119 velocity -0.468897548053134 2.14372678632974 0 angularVelocity 0 0 2.76667998548688 force 0 0 0 torque 0 0 0 radius 0.6 invMass 0.694444444444444
BaseParticle id 1 indSpecies 0 position 1.44876891337977 10.4089904943107 0 orientation 0.55558368562335 0 0 -0.831460623402681 velocity 1.62315009927306 1.10514849087996 0 angularVelocity 0 0 0.0492364513104104 force 11.8600170544554 91.1564001751245 0 torque 0 0 1.00138034578735 radius 0.490310205248827 invMass 1.03991571996395
BaseParticle id 2 indSpecies 0 position 14.611185471418 12.3655867841628 0 orientation 0.14738736316924 0 0 0.98907884679535 velocity 5.12953477363753 -0.610060911081472 0 angularVelocity 0 0 0.711889018160177 force 16.2133815664817 -42.7169284764585 0 torque 0 0 -8.64188861420222 radius 0.44318316686602 invMass 1.27283906432741
BaseParticle id 3 indSpecies 0 position 4.13484772576549 10.0411512472951 0 orientation -0.578889487185429 0 0 -0.815406010295602 velocity 0.650034347897646 0.398190445447828 0 angularVelocity 0 0 0.0673150269544043 force -7.92359464961915 35.4619185259279 0 torque 0 0 4.43167912033637 radius 0.482757430260296 invMass 1.07270937199144
BaseParticle id 4 indSpecies 0 position 6.5946986262144 3.97407292668709 0 orientation -0.95853110731747 0 0 -0.284987923085777 velocity -3.78042655983 0.51323687394736 0 angularVelocity 0 0 1.19259615441322 force -2.24507600611161 18.7477242611796 0 torque 0 0 -7.02270353253121 radius 0.443412234034937 invMass 1.27152430434995
BaseParticle id 5 indSpecies 0 position 12.6589377438889 1.29100736971835 0 orientation -0.999039757736551 0 0 0.0438128116159292 velocity -5.45021904605071 -2.62595106722793 0 angularVelocity 0 0 1.61789954576687 force 5.46077285475698 41.5055115582676 0 torque 0 0 6.84010636682592 radius 0.468547692831096 invMass 1.13876051783903
BaseParticle id 6 indSpecies 0 position 2.67455415183738 6.88993968787917 0 orientation 0.512186500943225 0 0 0.858874256367913 velocity -0.390302056339732 2.58803867916193 0 angularVelocity 0 0 3.84166974440062 force 59.2671832193005 -23.7403592986739 0 torque 0 0 8.74936534809596 radius 0.414542832398282 invMass 1.45479295011974
BaseParticle id 7 indSpecies 0 position 5.76205017519867 3.51708275343313 0 orientation -0.54542915076135 0 0 -0.838156931308065 velocity -5.43971485058376 0.371529288310046 0 angularVelocity 0 0 -0.651450149152008 force 5.95293390699756 29.837584151453 0 torque 0 0 10.2434695435497 radius 0.478194994406593 invMass 1.09327635938494
BaseParticle id 8 indSpecies 0 position 5.74992935019949 9.24025139019725 0 orientation -0.528654867522494 0 0 -0.848836869513085 velocity -0.315624414591882 0.877712270963243 0 angularVelocity 0 0 0.0689797825798126 force 11.3336650264137 8.3418821379176 0 torque 0 0 3.50793674946102 radius 0.560615155323767 invMass 0.795445337577875
BaseParticle id 9 indSpecies 0 position 4.60609051648175 9.13598034057178 0 orientation 0.923400830810248 0 0 0.383837082183241 velocity 0.699146517304587 1.43262635488949 0 angularVelocity 0 0 -0.559960242167247 force -0.152168406126949 -48.1517737228206 0 torque 0 0 5.81221068611685 radius 0.555034915772234 invMass 0.811520322433125
BaseParticle id 10 indSpecies 0 position 12.3597381561127 2.76562855398229 0 orientation -0.327625452693428 0 0 -0.944807685588674 velocity -5.80229057501657 -1.10350726740105 0 angularVelocity 0 0 1.24897413281603 force 0.695916225288585 65.0156238874986 0 torque 0 0 -3.74530115839677 radius 0.458328316492654 invMass 1.19010869795051
BaseParticle id 11 indSpecies 0 position 14.5234372485551 11.3680263914853 0 orientation 0.72636702594484 0 0 -0.687307022821714 velocity 2.91982748950375 -0.91400739679408 0 angularVelocity 0 0 -4.07431313720925 force 7.97237316559254 16.9491148775706 0 torque 0 0 -30.5249203722983 radius 0.59718323555106 invMass 0.70101093691162
BaseParticle id 12 indSpecies 0 position 7.40644189450718 14.7971576423418 0 orientation -0.991978989802515 0 0 0.126402863062439 velocity 5.91682334441527 1.74247560981665 0 angularVelocity 0 0 -3.37648666677605 force -0.866135358895981 -33.8535782304269 0 torque 0 0 3.07981144431777 radius 0.435925238173525 invMass 1.31557611994247
BaseParticle id 13 indSpecies 0 position 0.594129157307885 11.3496871456457 0 orientation -0.530909328124383 0 0 -0.847428631396483 velocity 1.89176652226517 -0.755238851442949 0 angularVelocity 0 0 5.19706729884845 force 38.5591014978472 -0.419573184014094 0 torque 0 0 -10.4856458189262 radius 0.507575601239153 invMass 0.970372618256492
BaseParticle id 14 indSpecies 0 position 0.641952638010987 1.11741763096159 0 orientation -0.604963782636431 0 0 0.796252988501909 velocity -6.15852344034955 0.587179826709318 0 angularVelocity 0 0 -0.759719547588709 force 27.6690749511123 -39.5560665232751 0 torque 0 0 7.4030687105359 radius 0.439748435616728 invMass 1.29280017544927
BaseParticle id 15 indSpecies 0 position 9.95965687419279 7.3855379588328 0 orientation 0.922156211958325 0 0 -0.386817684118336 velocity -1.07297803552326 -0.407827559368905 0 angularVelocity 0 0 0.208204787308302 force 60.8691397378402 -62.9706435389045 0 torque 0 0 9.4095750846684 radius 0.437439820694328 invMass 1.30648184446695
BaseParticle id 16 indSpecies 0 position 11.2352654485262 5.40541697279442 0 orientation -0.0992995144389965 0 0 -0.995057589505341 velocity -1.45588844026009 -2.88516778791815 0 angularVelocity 0 0 -3.18482909481112 force 49.5508241497406 -0.663758840565505 0 torque 0 0 11.2050818402838 radius 0.537099516636599 invMass 0.866623548094783
BaseParticle id 17 indSpecies 0 position 8.81550159549542 9.34459355041151 0 orientation -0.989148888590306 0 0 0.146916562036286 velocity 0.900358999906757 -1.03504990522731 0 angularVelocity 0 0 0.844811086894282 force 17.065610700258 -10.4210463199077 0 torque 0 0 -4.18420008102902 radius 0.425739832012225 invMass 1.3792768269792
BaseParticle id 18 indSpecies 0 position 0.859122217257986 4.80419876486186 0 orientation 0.562725023769332 0 0 -0.826644148121672 velocity -1.4868991805867 0.42789296932968 0 angularVelocity 0 0 -0.509740696962908 force -30.6771750465876 -37.1016519763164 0 torque 0 0 0.266783449951757 radius 0.414972699605885 invMass 1.45178049230394
BaseParticle id 19 indSpecies 0 position 10.0613119079321 12.781181655464 0 orientation 0.64321896212616 0 0 0.7656822883947 velocity 4.39841927199419 0.43635424067576 0 angularVelocity 0 0 3.11571174696296 force -4.79932341213485 15.2757745291718 0 torque 0 0 17.8713383272995 radius 0.516817914585753 invMass 0.935976381949314
BaseParticle id 20 indSpecies 0 position 0.88578679531392 2.94987121763611 0 orientation 0.881742570153299 0 0 -0.471730897842673 velocity -4.70667157116168 1.00116610994707 0 angularVelocity 0 0 -0.589849467609311 force 55.5428648788076 -58.7424231370371 0 torque 0 0 16.8682446197666 radius 0.557670171784544 invMass 0.803868807065473
BaseParticle id 21 indSpecies 0 position 2.01147251594381 12.4502042469453 0 orientation 0.80941849154053 0 0 0.587232241581006 velocity 4.52200337261914 -0.330409371263775 0 angularVelocity 0 0 0.725581530480777 force 26.2555670147844 92.3028190686788 0 torque 0 0 16.3567984142122 radius 0.580649205874047 invMass 0.741502015523424
BaseParticle id 22 indSpecies 0 position 10.7079414020306 8.28382047055146 0 orientation 0.511972599202864 0 0 0.859001779780149 velocity 0.213504571890254 -0.662122109590848 0 angularVelocity 0 0 -2.88079362313552 force 41.6462101213361 25.173756082175 0 torque 0 0 6.00581836074429 radius 0.522244593014713 invMass 0.916625857180633
BaseParticle id 23 indSpecies 0 position 2.50420768382636 1.48561176481502 0 orientation -0.595340118628567 0 0 0.803473797426726 velocity -6.00940807736239 -0.529301798706116 0 angularVelocity 0 0 0.0522702372207493 force -30.5356362832581 -42.2077530182731 0 torque 0 0 15.8550780984141 radius 0.46481008598133 invMass 1.15714803465774
BaseParticle id 24 indSpecies 0 position 1.66161908364404 11.4338466095945 0 orientation 0.453507340811707 0 0 -0.891252540994916 velocity 2.76790877722738 -0.347816933151577 0 angularVelocity 0 0 0.189637590076254 force -54.267624011513 -91.1883199741036 0 torque 0 0 -8.46883730874789 radius 0.579151562061951 invMass 0.74534191451288
BaseParticle id 25 indSpecies 0 position 1.25483163944717 8.63408845456298 0 orientation 0.252682300350448 0 0 0.967549303699613 velocity -0.676508584828802 0.446741701991815 0 angularVelocity 0 0 0.683102515126907 force 14.4728947465485 4.38520820416837 0 torque 0 0 -2.99057525255631 radius 0.474449489755137 invMass 1.11060606508153
BaseParticle id 26 indSpecies 0 position 13.7070267867509 1.43872743995366 0 orientation -0.987743266696249 0 0 0.156087280379351 velocity -6.19424924255291 -3.05287168020998 0 angularVelocity 0 0 5.02177555077293 force -36.0062009412354 24.7503336787982 0 torque 0 0 -11.3005286840238 radius 0.446432356120616 invMass 1.25437873139117
BaseParticle id 27 indSpecies 0 position 4.57834420159671 4.58765985783401 0 orientation 0.385790590847436 0 0 0.922586375367416 velocity -4.7289838714233 2.03106252632831 0 angularVelocity 0 0 -3.61180200607737 force 77.7830661955792 -19.8074486579644 0 torque 0 0 1.23091011460175 radius 0.40623971428141 invMass 1.51486960747096
BaseParticle id 28 indSpecies 0 position 1.96346613374835 13.3902509961519 0 orientation 0.393434723379489 0 0 -0.919352553941797 velocity 6.50335026554847 0.342332980905111 0 angularVelocity 0 0 -1.88412081390512 force -18.5350735247912 -28.201512656426 0 torque 0 0 4.18360533488538 radius 0.419184754957273 invMass 1.42275149052303
BaseParticle id 29 indSpecies 0 position 5.28600713374188 6.62445396451674 0 orientation 0.234152582528408 0 0 0.972199860160079 velocity -1.5855576344861 0.542615942338236 0 angularVelocity 0 0 -0.611962019148777 force 37.9946457476409 -10.4768743628144 0 torque 0 0 -9.23240452455583 radius 0.554470777367735 invMass 0.813172502113774
BaseParticle id 30 indSpecies 0 position 14.7145542176576 1.47358618246613 0 orientation -0.37769536693415 0 0 -0.925929916244463 velocity -5.69715975864299 0.195793372723288 0 angularVelocity 0 0 -0.833924586875356 force -6.83876963751876 42.1059399489543 0 torque 0 0 12.2559461912218 radius 0.58201726620829 invMass 0.738020238151995
BaseParticle id 31 indSpecies 0 position 12.1947029298126 7.65642030557305 0 orientation 0.807145468431712 0 0 -0.59035260039247 velocity -0.0727896168285547 1.03128051325798 0 angularVelocity 0 0 -2.27708180505441 force -9.811066371629 22.8791859714427 0 torque 0 0 -4.01784728335908 radius 0.562139896152411 invMass 0.791136078850553
BaseParticle id 32 indSpecies 0 position 12.6106795237951 4.83562186042044 0 orientation 0.808991270073044 0 0 -0.587820657127327 velocity -2.53353406013725 -0.0437526006506208 0 angularVelocity 0 0 -3.97763869964282 force -13.2091474769644 13.0902993027021 0 torque 0 0 -7.22895290675856 radius 0.490619558384065 invMass 1.03860472548434
BaseParticle id 33 indSpecies 0 position 11.7405037410696 4.60422206856233 0 orientation 0.051721149718655 0 0 -0.998661565632612 velocity -1.82526904423258 -3.81821587253521 0 angularVelocity 0 0 5.66739209494288 force 0 0 0 torque 0 0 0 radius 0.407075144157675 invMass 1.50865813177076
BaseParticle id 34 indSpecies 0 position 5.93391753573642 12.5075621284253 0 orientation -0.957973776210602 0 0 0.286855789714624 velocity 4.21953649182088 0.988012663515167 0 angularVelocity 0 0 -2.61222400229964 force -46.7507753676471 -25.1445605648497 0 torque 0 0 15.8687711892711 radius 0.419519419391156 invMass 1.42048244464748
BaseParticle id 35 indSpecies 0 position 13.4558603624606 10.1734666156953 0 orientation 0.347131864526391 0 0 -0.937816329901773 velocity 1.31492368314348 -0.843256137449912 0 angularVelocity 0 0 -1.53826012686706 force -10.782105246564 -67.669061655918 0 torque 0 0 -7.36091155337163 radius 0.492819850619119 invMass 1.02935131384005
BaseParticle id 36 indSpecies 0 position 8.23941930502668 6.80674564733902 0 orientation 0.42229323880797 0 0 0.906459276778099 velocity -0.15238268775727 -1.60720071930562 0 angularVelocity 0 0 0.48843827811005 force -29.598922473075 -25.6978699421001 0 torque 0 0 1.45564590331328 radius 0.496534051097432 invMass 1.01400929321745
BaseParticle id 37 indSpecies 0 position 4.49731585081271 1.77821385217627 0 orientation -0.828373203587477 0 0 -0.560176611059602 velocity -6.69652151638543 0.750002321536016 0 angularVelocity 0 0 3.51249168287823 force 52.3593136114554 -62.4576796541142 0 torque 0 0 -1.41737035158841 radius 0.456191804766476 invMass 1.2012822232581
BaseParticle id 38 indSpecies 0 position 0.110811304216081 13.108405852032 0 orientation -0.978236575375051 0 0 0.207492656733898 velocity 4.975477932088 -0.753282521173025 0 angularVelocity 0 0 -1.15386458152141 force 41.9628460851664 33.0164205327311 0 torque 0 0 15.7366434063136 radius 0.480361011176965 invMass 1.08343910813323
BaseParticle id 39 indSpecies 0 position 1.09752530065142 6.41302746885671 0 orientation 0.785312197049636 0 0 0.61909995409875 velocity -2.71560272959044 0.710662155058254 0 angularVelocity 0 0 -1.76007547120367 force 11.0687071697382 81.883757225717 0 torque 0 0 1.13244810161105 radius 0.408118826702127 invMass 1.5009518132041
BaseParticle id 40 indSpecies 0 position 11.2617314245456 14.0449351396651 0 orientation -0.602827718435842 0 0 0.79787138179373 velocity 5.30965450552007 1.38977846483096 0 angularVelocity 0 0 -3.80305131394959 force 21.9552100794926 -76.2418398782526 0 torque 0 0 -20.8410463645031 radius 0.486191615568296 invMass 1.05760885521965
BaseParticle id 41 indSpecies 0 position 13.3085291276552 0.513967984624732 0 orientation -0.572831590628311 0 0 0.81967308652794 velocity -7.12646237570084 -1.30839701612491 0 angularVelocity 0 0 -3.76025278912718 force 43.374757501009 -88.8273483720272 0 torque 0 0 -23.8683200494216 radius 0.59153976869626 invMass 0.714450450332912
BaseParticle id 42 indSpecies 0 position 14.9048746165884 5.0109036448535 0 orientation -0.348949882785121 0 0 -0.937141387040531 velocity -2.06699141628917 0.414094533510194 0 angularVelocity 0 0 2.19245278775015 force 4.35525429153637 0.995320038904744 0 torque 0 0 2.12677473296646 radius 0.525167117523805 invMass 0.906452304459179
BaseParticle id 43 indSpecies 0 position 2.86098996258289 14.6461691617677 0 orientation -0.954969198064945 0 0 -0.296704955717283 velocity 7.61564922893297 0.282071093417136 0 angularVelocity 0 0 -4.69945732943938 force -6.88417049988725 5.45279602584855 0 torque 0 0 6.08282811263051 radius 0.569847508361705 invMass 0.769879403795168
BaseParticle id 44 indSpecies 0 position 12.0039689955274 6.54406969073677 0 orientation -0.246982359809354 0 0 -0.969019976028876 velocity -1.82281412217011 1.84293423618744 0 angularVelocity 0 0 0.159997660599649 force -43.5753767016 16.983874422063 0 torque 0 0 -11.4544064566526 radius 0.596935467611127 invMass 0.701592990051971
BaseParticle id 45 indSpecies 0 position 14.4567099139322 8.50341251480744 0 orientation -0.249027423158308 0 0 -0.968496433919678 velocity 0.762099760534239 1.16963743280929 0 angularVelocity 0 0 -0.310889469064022 force 47.6047320215534 -45.7854402280066 0 torque 0 0 -3.95321266387057 radius 0.551537996389402 invMass 0.82184351862341
BaseParticle id 46 indSpecies 0 position 1.92360779711898 2.28478360647752 0 orientation 0.711139408918755 0 0 -0.703051023100517 velocity -5.41284125424747 -0.322497451758449 0 angularVelocity 0 0 0.0619128048651506 force 11.0142068045498 10.2698124101879 0 torque 0 0 -2.52525464075158 radius 0.560503976828881 invMass 0.795760929223729
BaseParticle id 47 indSpecies 0 position 13.4080309793447 6.55785625537449 0 orientation 0.895907728758936 0 0 0.4442401845286 velocity -1.43222130421261 -0.257570793536841 0 angularVelocity 0 0 -2.02693997923131 force 20.6705986966214 11.3991605083142 0 torque 0 0 -0.458649153371497 radius 0.411416921567715 invMass 1.47698371943721
BaseParticle id 48 indSpecies 0 position 8.15764991151941 7.77378148247468 0 orientation 0.992620716345085 0 0 -0.121260519059463 velocity -0.701668041472914 -0.407531230460045 0 angularVelocity 0 0 -2.2184692791116 force -38.5939165033416 18.4717803108657 0 torque 0 0 4.19706705497732 radius 0.407020688236672 invMass 1.50906185013823
BaseParticle id 49 indSpecies 0 position 11.4835169145707 11.4194587825827 0 orientation 0.914126051806428 0 0 -0.405430094355109 velocity 4.61398553624245 1.78846322321766 0 angularVelocity 0 0 4.94457108498556 force 56.2879716782294 -50.4742427525061 0 torque 0 0 3.23437474645907 radius 0.485903055699632 invMass 1.05886537784231
BaseParticle id 50 indSpecies 0 position 9.26662039862711 3.0024691610732 0 orientation -0.28005612177698 0 0 -0.959983629368354 velocity -3.78083271096456 -2.41983589586716 0 angularVelocity 0 0 -0.933657233678027 force -7.80528173827273 -75.376101214689 0 torque 0 0 -5.89957191426019 radius 0.569054771429808 invMass 0.772025899959515
BaseParticle id 51 indSpecies 0 position 12.3088757791951 12.3985205730523 0 orientation 0.359151706992723 0 0 -0.933279192612914 velocity 5.10825075353194 0.818409169843826 0 angularVelocity 0 0 -0.912722066264518 force 21.0891650028356 41.2738246860715 0 torque 0 0 -12.0721487031212 radius 0.599654840492034 invMass 0.695244114755309
BaseParticle id 52 indSpecies 0 position 8.5006071461212 4.7879664619368 0 orientation -0.00415086875450965 0 0 0.999991385107183 velocity -2.55767814721516 -1.16577302337983 0 angularVelocity 0 0 -3.01372389620328 force -10.0163525796407 34.0442746615444 0 torque 0 0 8.85248666664089 radius 0.424383755191803 invMass 1.38810559886234
BaseParticle id 53 indSpecies 0 position 13.2323127528423 5.65253888811596 0 orientation 0.477691307492819 0 0 -0.878527754112414 velocity -2.27996991577542 0.107272039853737 0 angularVelocity 0 0 -2.93541058261193 force -34.5039974762265 -1.053861359649 0 torque 0 0 2.11380585015271 radius 0.522934278731296 invMass 0.914209619038676
BaseParticle id 54 indSpecies 0 position 9.69168961639017 9.22543922618034 0 orientation 0.716064097837142 0 0 -0.69803453194572 velocity 2.27223132406522 -0.24551024048114 0 angularVelocity 0 0 1.28546790657749 force -6.13087116787381 30.1920695993741 0 torque 0 0 -6.09356241968982 radius 0.488232907198153 invMass 1.04878366159206
BaseParticle id 55 indSpecies 0 position 10.445594799867 4.82169531098465 0 orientation 0.769936893681851 0 0 -0.638120035532142 velocity -3.16705508708136 -2.01588878932108 0 angularVelocity 0 0 -1.02336536092954 force 7.6078706685056 -20.846602900336 0 torque 0 0 -0.0629894337015191 radius 0.463809693359016 invMass 1.16214513062843
BaseParticle id 56 indSpecies 0 position 7.58126724667878 2.34217033717986 0 orientation -0.998575245044606 0 0 -0.0533617839291818 velocity -9.02249089240145 0.475518781451471 0 angularVelocity 0 0 -2.7448078205186 force 169.723722836885 -75.8831389782223 0 torque 0 0 -3.54804733906107 radius 0.436349573883834 invMass 1.31301865444806
BaseParticle id 57 indSpecies 0 position 5.53036665020179 1.69243838390253 0 orientation -0.898366679458158 0 0 -0.439246296784985 velocity -6.01878600980194 0.637803034558229 0 angularVelocity 0 0 -2.34009208069591 force 0 0 0 torque 0 0 0 radius 0.566486416602054 invMass 0.779042242501049
BaseParticle id 58 indSpecies 0 position 11.7361346109555 8.61479207705587 0 orientation 0.548573201588254 0 0 0.836102531092457 velocity -1.53057876699506 1.61417257987665 0 angularVelocity 0 0 0.727400633645502 force -67.4240268857554 62.7730559747896 0 torque 0 0 -16.5758312567393 radius 0.5622327963242 invMass 0.790874654735751
BaseParticle id 59 indSpecies 0 position 14.631807085293 4.12790229506525 0 orientation 0.381530560135799 0 0 0.924356225533459 velocity -3.44095365831669 3.24209442366434 0 angularVelocity 0 0 -1.10679072028724 force -13.051826866625 45.6318866375142 0 torque 0 0 2.67474358574717 radius 0.41674196923455 invMass 1.4394796497164
BaseParticle id 60 indSpecies 0 position 5.12625076212053 12.8201422246376 0 orientation 0.712092825270167 0 0 -0.702085328289056 velocity 4.14728518214387 0.149243707064141 0 angularVelocity 0 0 4.904091127878 force 65.5008728709089 -59.5235018451267 0 torque 0 0 -18.2163963771649 radius 0.44527600869045 invMass 1.26090224044777
BaseParticle id 61 indSpecies 0 position 12.6162338934742 9.28093551700948 0 orientation 0.820155050335359 0 0 -0.572141322934643 velocity 0.117180125661325 -0.836822398414176 0 angularVelocity 0 0 -3.17784022757006 force 14.1832142871283 6.90504779451722 0 torque 0 0 -3.78045164462135 radius 0.547629797321158 invMass 0.833615665304513
BaseParticle id 62 indSpecies 0 position 8.17433356773602 5.72376898378373 0 orientation 0.946592013276126 0 0 -0.32243380778363 velocity -1.02020503401311 -1.08345657348434 0 angularVelocity 0 0 -0.881302273747618 force -94.3947450900313 46.5713742588704 0 torque 0 0 -13.2525552768193 radius 0.592518138333673 invMass 0.712092988209593
BaseParticle id 63 indSpecies 0 position 6.05460021243633 7.48204075780866 0 orientation -0.267488220301756 0 0 -0.963561130390698 velocity -1.36492117305757 0.643998814161215 0 angularVelocity 0 0 2.17132000888128 force 0 0 0 torque 0 0 0 radius 0.593303123681524 invMass 0.710209927927443
BaseParticle id 64 indSpecies 0 position 11.9448109514312 1.91382782355946 0 orientation -0.9160426550174 0 0 -0.401080857419889 velocity -6.94708367004322 -0.0647579186215813 0 angularVelocity 0 0 -4.77564199191472 force -20.4660027670588 46.0391521325149 0 torque 0 0 -2.88562479577682 radius 0.515135914352596 invMass 0.942098582472991
BaseParticle id 65 indSpecies 0 position 1.7824038315858 14.3182671656857 0 orientation -0.807838819637553 0 0 0.589403462397877 velocity 7.32713709786305 -1.2023067393029 0 angularVelocity 0 0 0.343609145350649 force 128.993163573442 -4.72420682285097 0 torque 0 0 -9.01048148989373 radius 0.555997980985792 invMass 0.808711426912907
BaseParticle id 66 indSpecies 0 position 4.12444226526514 8.23813280844855 0 orientation 0.973570014738773 0 0 0.228388761548256 velocity -0.153212326223645 0.740948378637646 0 angularVelocity 0 0 -0.592728806302164 force 128.254925129918 -79.2775074927159 0 torque 0 0 -14.055447330929 radius 0.411747700896349 invMass 1.47461158990072
BaseParticle id 67 indSpecies 0 position 9.00745738423901 7.44678573066493 0 orientation 0.854242870411201 0 0 -0.519874137028985 velocity -0.583630568800671 -0.976055662593696 0 angularVelocity 0 0 0.659352930641672 force 40.5079848428052 52.0063884442553 0 torque 0 0 2.10399662069366 radius 0.530901985307315 invMass 0.886974858630641
BaseParticle id 68 indSpecies 0 position 7.150508531621 1.41888584802413 0 orientation -0.419310929523088 0 0 -0.90784268702374 velocity -8.89490039387457 -2.56888096608501 0 angularVelocity 0 0 -5.5069232620972 force 60.0902702581947 32.7922754896412 0 torque 0 0 15.9861619594012 radius 0.454036666588824 invMass 1.21271334193254
BaseParticle id 69 indSpecies 0 position 6.77886321158303 12.8437052652195 0 orientation 0.94817527527428 0 0 0.317747773176372 velocity 6.36935067416835 1.44274770910815 0 angularVelocity 0 0 -1.52881581972723 force 2.48439058001447 -0.0553047179655834 0 torque 0 0 -10.8498225049953 radius 0.47582291637005 invMass 1.10420395836047
BaseParticle id 70 indSpecies 0 position 1.93307452377175 6.05984485256238 0 orientation -0.18127892584769 0 0 -0.983431721597137 velocity -2.86312115422795 -0.130311818948006 0 angularVelocity 0 0 0.755329735771249 force -2.77077999200731 85.0775703104124 0 torque 0 0 -10.3012831753041 radius 0.506138601241504 invMass 0.975890493927447
BaseParticle id 71 indSpecies 0 position 8.66016997219526 3.88860107101982 0 orientation 0.932112178954597 0 0 0.362169692056795 velocity -4.08617323501065 -2.13738957177663 0 angularVelocity 0 0 0.72827145052566 force -21.1316295416142 -35.7044279058511 0 torque 0 0 18.3440437756091 radius 0.517258662434985 invMass 0.934382000444317
BaseParticle id 72 indSpecies 0 position 0.895175915443698 1.96789351477624 0 orientation 0.898575456202812 0 0 -0.438819039593667 velocity -5.85257769896232 0.73733296188083 0 angularVelocity 0 0 0.499844808639052 force 19.7244455153107 11.4352620748958 0 torque 0 0 -1.67112010007322 radius 0.457677194794941 invMass 1.1934973606173
BaseParticle id 73 indSpecies 0 position 8.50342378271949 13.6126876795168 0 orientation -0.953798281654737 0 0 -0.30044772908523 velocity 6.79661897427204 -0.0287067429096705 0 angularVelocity 0 0 -0.863718662891028 force 31.7042228570066 71.7417098296207 0 torque 0 0 -1.31359561111761 radius 0.551657597579381 invMass 0.821487200472219
BaseParticle id 74 indSpecies 0 position 5.26489112402782 8.29162316639776 0 orientation -0.048235688438462 0 0 0.998835981711145 velocity 0.755338466016904 0.167338771839082 0 angularVelocity 0 0 -1.97940729702008 force -11.3336650264137 -8.3418821379176 0 torque 0 0 3.19736605857554 radius 0.511267087691215 invMass 0.956410501264258
BaseParticle id 75 indSpecies 0 position 9.17772113739535 12.9770702877881 0 orientation 0.959467486647003 0 0 0.281819342961557 velocity 4.98117815931104 -1.28262930209576 0 angularVelocity 0 0 0.574430594421178 force 11.3548230394987 -32.9817874481999 0 torque 0 0 -0.502981465329711 radius 0.430345948571017 invMass 1.34990924366033
BaseParticle id 76 indSpecies 0 position 7.17601170310581 5.89774669246027 0 orientation -0.954850620035404 0 0 -0.297086340005736 velocity 0.196501182648473 0.584938976476731 0 angularVelocity 0 0 -3.93556254061816 force -43.3618606461054 -10.8352403697579 0 torque 0 0 0.977596350542909 radius 0.43874251112459 invMass 1.29873509234223
BaseParticle id 77 indSpecies 0 position 14.3950304609654 10.3029603865221 0 orientation -0.986479725526554 0 0 -0.163883346088166 velocity 1.95289915641271 -1.32045246526723 0 angularVelocity 0 0 1.11816587078253 force -35.1561450467328 54.9371376387218 0 torque 0 0 -7.76560860349781 radius 0.508786219070865 invMass 0.965760257556457
BaseParticle id 78 indSpecies 0 position 13.8690668209065 14.1427840182655 0 orientation -0.378644138311673 0 0 -0.92554233642887 velocity 7.60890568399681 0.50964477309957 0 angularVelocity 0 0 -0.931628567493375 force 49.3378409582946 45.2586473260194 0 torque 0 0 -11.5054475818047 radius 0.506306820636329 invMass 0.975242126455046
BaseParticle id 79 indSpecies 0 position 12.4570841625813 11.3875430734892 0 orientation 0.222036011607726 0 0 -0.975038465676782 velocity 3.90743428022851 0.0901858741506099 0 angularVelocity 0 0 -3.12628321288656 force -38.4807399208637 74.1977826680384 0 torque 0 0 11.8689664536136 radius 0.49551822888151 invMass 1.01817103307618
BaseParticle id 80 indSpecies 0 position 0.487364995639996 0.134857468623129 0 orientation -0.97725143927646 0 0 -0.212084003244202 velocity -6.81661296143544 0.339437330580678 0 angularVelocity 0 0 -1.30935256533595 force 10.8031155111152 -14.1990271691567 0 torque 0 0 -2.2925640035563 radius 0.56723574421626 invMass 0.776985347130526
BaseParticle id 81 indSpecies 0 position 3.82606554534813 4.88038530226777 0 orientation -0.999748895318782 0 0 0.0224086213068941 velocity -3.27868052459994 0.594561250985195 0 angularVelocity 0 0 2.86561637235492 force -4.67374995779605 15.4570217128083 0 torque 0 0 11.7207873426554 radius 0.453321833672634 invMass 1.21654095771375
BaseParticle id 82 indSpecies 0 position 12.1805652345713 0.496399085371271 0 orientation 0.471570636354686 0 0 -0.881828291068072 velocity -7.88583596208698 -0.837699181205448 0 angularVelocity 0 0 -2.22711370780973 force 0 0 0 torque 0 0 0 radius 0.431704653397478 invMass 1.3414254716521
BaseParticle id 83 indSpecies 0 position 8.92483253879195 0.717839447012911 0 orientation 0.897470775249489 0 0 -0.441073925292667 velocity -7.61565778598833 1.36964490721408 0 angularVelocity 0 0 -1.36361094339951 force 19.5663029643376 6.92369371411749 0 torque 0 0 18.0492262988106 radius 0.58482788709474 invMass 0.730943589721358
BaseParticle id 84 indSpecies 0 position 7.20625906158224 6.87654712772731 0 orientation 0.979836887266135 0 0 -0.199799084964399 velocity 0.36418729832683 -0.105930110583711 0 angularVelocity 0 0 -2.52798502267761 force 37.8828385178641 31.7796629618215 0 torque 0 0 9.19921394192783 radius 0.546747668323342 invMass 0.836307765556275
BaseParticle id 85 indSpecies 0 position 6.74636882725104 0.527214215972855 0 orientation -0.25729036083257 0 0 -0.966334140048175 velocity -8.53810493073921 -1.23191401578972 0 angularVelocity 0 0 -1.47735645842643 force -137.647166475072 -64.476560634155 0 torque 0 0 20.8441627463579 radius 0.576991507059903 invMass 0.75093296086944