MercuryDPM 0.14 name MultiplePSDSelfTest revision 6704 repository https://svn.mercurydpm.org/SourceCode/MercuryLab
dataFile    fileType ONE_FILE saveCount 10 counter 22 lastSavedTimeStep 201
fStatFile   fileType ONE_FILE saveCount 20 counter 12 lastSavedTimeStep 201
eneFile     fileType ONE_FILE saveCount 20 counter 12 lastSavedTimeStep 201
restartFile fileType ONE_FILE saveCount 20 counter 12 lastSavedTimeStep 201
statFile    fileType ONE_FILE saveCount 20 counter 0
interactionFile fileType NO_FILE saveCount 0 counter 0
xMin 0 xMax 0.2 yMin 0 yMax 0.2 zMin 0 zMax 0.2
timeStep 0.0001 time 0.0200999999999999 ntimeSteps 201 timeMax 0.02
systemDimensions 3 particleDimensions 3 gravity 0 0 0 backgroundDrag 0 writeVTK 0 NO_FILE NO_FILE 0 0 0 0 0 random  0 1103515245 12345 1073741824 607 273 784607267
Species 3
LinearViscoelasticSpecies id 0 density 2000 stiffness 10000 dissipation 0
LinearViscoelasticSpecies id 1 density 200 stiffness 1000 dissipation 0
LinearViscoelasticMixedSpecies idA 1 idB 0 stiffness 1818.18181818182 dissipation 0
LinearViscoelasticSpecies id 2 density 20 stiffness 100 dissipation 0
LinearViscoelasticMixedSpecies idA 2 idB 0 stiffness 198.019801980198 dissipation 0
LinearViscoelasticMixedSpecies idA 2 idB 1 stiffness 181.818181818182 dissipation 0
Walls 0
Boundaries 1
CubeInsertionBoundary id 0 maxFailed 1 massInserted 0.172705482634772 volumeInserted 0.000203700053021651 numberOfParticlesInserted 15909 isActivated 1 psdCount 3 psd 47 0.000387645 0 0.000405195 0.00641963 0.000423541 0.0157881 0.000442717 0.0289129 0.000462761 0.0475877 0.000483713 0.0702285 0.000505613 0.096661 0.000528505 0.12752 0.000552434 0.162984 0.000577445 0.199952 0.00060359 0.236205 0.000630917 0.270216 0.000659483 0.300988 0.000689341 0.328802 0.000720551 0.354678 0.000753175 0.379335 0.000787275 0.404133 0.000822919 0.430189 0.000860177 0.458372 0.000899122 0.489708 0.000939831 0.524177 0.000982382 0.561866 0.00102686 0.602098 0.00107335 0.643887 0.00112195 0.686123 0.00117275 0.727694 0.00122584 0.767495 0.00128134 0.804712 0.00133936 0.838663 0.0014 0.868961 0.00146338 0.895445 0.00152964 0.918157 0.00159889 0.937242 0.00167128 0.952947 0.00174695 0.965604 0.00182605 0.975541 0.00190872 0.983136 0.00199514 0.988764 0.00208547 0.992798 0.00217989 0.995601 0.00227859 0.997454 0.00238175 0.998635 0.00248959 0.999345 0.0026023 0.999741 0.00272012 0.999939 0.00284328 0.999995 0.00297201 1 psd 63 0.000465 0 0.000632 0.217013775695048 0.000674 0.217013775695048 0.00074 0.335251394091206 0.000812 0.335251394091206 0.000892 0.335251394091206 0.000979 0.392668619808036 0.001074 0.436130227067942 0.001178 0.472717384763922 0.001293 0.503181871595612 0.001419 0.528320108800596 0.001558 0.56791296242483 0.00171 0.584674059778422 0.001876 0.625450666475947 0.002059 0.647395715883923 0.002259 0.682688779184859 0.00248 0.712134130593236 0.002722 0.735583774046371 0.002987 0.764777367306237 0.003278 0.792815159778195 0.003598 0.819549852469856 0.003949 0.847059439208519 0.004334 0.873750475885533 0.004756 0.897839561021038 0.00522 0.920861323104689 0.005729 0.938847819651065 0.006287 0.954695644167068 0.0069 0.966776484164536 0.007573 0.976204090189468 0.008311 0.983513140393477 0.009121 0.98891659246847 0.010011 0.992818858686103 0.010987 0.995526800089052 0.012059 0.99730537206237 0.013234 0.998449370707991 0.014524 0.999137072662516 0.01594 0.999530208507718 0.017494 0.999751580167758 0.0192 0.999870829310482 0.021072 0.999934164820709 0.023126 0.999966590499441 0.025381 0.999983065322913 0.027856 0.999991373427427 0.030572 0.999995563181976 0.033553 0.999997781722863 0.036824 0.999998860600425 0.040414 0.999999223334851 0.044354 0.999999566336363 0.048679 0.999999773909136 0.053425 0.999999773909136 0.058634 0.999999803604006 0.064351 0.999999870992606 0.070625 0.999999887984902 0.07751 0.999999900839215 0.085068 0.999999959182034 0.093362 0.999999959182034 0.102464 0.999999959182034 0.112454 0.999999976018981 0.123418 0.999999976018981 0.135451 0.999999976018981 0.148658 0.999999976018981 0.163152 0.999999976018981 0.179059 1 psd 63 0.000465 0 0.000632 0.217013775695048 0.000674 0.217013775695048 0.00074 0.335251394091206 0.000812 0.335251394091206 0.000892 0.335251394091206 0.000979 0.392668619808036 0.001074 0.436130227067942 0.001178 0.472717384763922 0.001293 0.503181871595612 0.001419 0.528320108800596 0.001558 0.56791296242483 0.00171 0.584674059778422 0.001876 0.625450666475947 0.002059 0.647395715883923 0.002259 0.682688779184859 0.00248 0.712134130593236 0.002722 0.735583774046371 0.002987 0.764777367306237 0.003278 0.792815159778195 0.003598 0.819549852469856 0.003949 0.847059439208519 0.004334 0.873750475885533 0.004756 0.897839561021038 0.00522 0.920861323104689 0.005729 0.938847819651065 0.006287 0.954695644167068 0.0069 0.966776484164536 0.007573 0.976204090189468 0.008311 0.983513140393477 0.009121 0.98891659246847 0.010011 0.992818858686103 0.010987 0.995526800089052 0.012059 0.99730537206237 0.013234 0.998449370707991 0.014524 0.999137072662516 0.01594 0.999530208507718 0.017494 0.999751580167758 0.0192 0.999870829310482 0.021072 0.999934164820709 0.023126 0.999966590499441 0.025381 0.999983065322913 0.027856 0.999991373427427 0.030572 0.999995563181976 0.033553 0.999997781722863 0.036824 0.999998860600425 0.040414 0.999999223334851 0.044354 0.999999566336363 0.048679 0.999999773909136 0.053425 0.999999773909136 0.058634 0.999999803604006 0.064351 0.999999870992606 0.070625 0.999999887984902 0.07751 0.999999900839215 0.085068 0.999999959182034 0.093362 0.999999959182034 0.102464 0.999999959182034 0.112454 0.999999976018981 0.123418 0.999999976018981 0.135451 0.999999976018981 0.148658 0.999999976018981 0.163152 0.999999976018981 0.179059 1 psdRatio 0.9 0.05 0.05 initialVolume 0 samplingInterval 0 variableCumulativeVolumeFlowRate 0 particleToCopy 3 BaseParticle id 0 indSpecies 0 position 0 0 0 orientation 1 0 0 0 velocity 0 0 0 angularVelocity 0 0 0 force 0 0 0 torque 0 0 0 radius 1 invMass 1 BaseParticle id 0 indSpecies 1 position 0 0 0 orientation 1 0 0 0 velocity 0 0 0 angularVelocity 0 0 0 force 0 0 0 torque 0 0 0 radius 1 invMass 1 BaseParticle id 0 indSpecies 2 position 0 0 0 orientation 1 0 0 0 velocity 0 0 0 angularVelocity 0 0 0 force 0 0 0 torque 0 0 0 radius 1 invMass 1 posMin 0 0 0 posMax 0.2 0.2 0.2 velMin 0 0 0 velMax 0 0 0
Particles 15909
BaseParticle id 0 indSpecies 0 position 0.0925636018695649 0.0903102052488269 0.16952424517877 orientation 1 0 0 0 velocity 0 0 0 angularVelocity 0 0 0 force 0 0 0 torque 0 0 0 radius 0.000992611965961697 invMass 122051.431102804
BaseParticle id 1 indSpecies 0 position 0.0827574302602956 0.0198630029150629 0.154215501105212 orientation 1 0 0 0 velocity 0 0 0 angularVelocity 0 0 0 force 0 0 0 torque 0 0 0 radius 0.00138878637495148 invMass 44563.0650252216
BaseParticle id 2 indSpecies 0 position 0.119144225382112 0.185328807322934 0.0145428323982816 orientation 1 0 0 0 velocity 0 0 0 angularVelocity 0 0 0 force 0 0 0 torque 0 0 0 radius 0.00136140675700761 invMass 47306.1592738614
BaseParticle id 3 indSpecies 0 position 0.0386889217061094 0.160615155323767 0.042893146497297 orientation 1 0 0 0 velocity 0 0 0 angularVelocity 0 0 0 force 0 0 0 torque 0 0 0 radius 0.00138281005231415 invMass 45143.3528080637
BaseParticle id 4 indSpecies 0 position 0.0583283164926541 0.130324730155687 0.0612549961905414 orientation 1 0 0 0 velocity 0 0 0 angularVelocity 0 0 0 force 0 0 0 torque 0 0 0 radius 0.00104946954748608 invMass 103269.451792591
BaseParticle id 5 indSpecies 0 position 0.041666377296982 0.193967838032201 0.107575601239153 orientation 1 0 0 0 velocity 0 0 0 angularVelocity 0 0 0 force 0 0 0 torque 0 0 0 radius 0.000780335216326111 invMass 251210.492046167
BaseParticle id 6 indSpecies 0 position 0.193119730248004 0.0374398206943275 0.150285212183106 orientation 1 0 0 0 velocity 0 0 0 angularVelocity 0 0 0 force 0 0 0 torque 0 0 0 radius 0.000634122825795049 invMass 468124.354531465
BaseParticle id 7 indSpecies 0 position 0.0257398320122251 0.0612333164911407 0.11836522266421 orientation 1 0 0 0 velocity 0 0 0 angularVelocity 0 0 0 force 0 0 0 torque 0 0 0 radius 0.000475268387559113 invMass 1111897.13312031
BaseParticle id 8 indSpecies 0 position 0.154547452410173 0.169375543138594 0.157670171784544 orientation 1 0 0 0 velocity 0 0 0 angularVelocity 0 0 0 force 0 0 0 torque 0 0 0 radius 0.000657217646445202 invMass 420488.13676593
BaseParticle id 9 indSpecies 0 position 0.178073259277201 0.122244593014713 0.136194981321511 orientation 1 0 0 0 velocity 0 0 0 angularVelocity 0 0 0 force 0 0 0 torque 0 0 0 radius 0.000875144139491471 invMass 178091.269014092
BaseParticle id 10 indSpecies 0 position 0.179151562061951 0.0850503257615023 0.15744728375464 orientation 1 0 0 0 velocity 0 0 0 angularVelocity 0 0 0 force 0 0 0 torque 0 0 0 radius 0.00132661695030547 invMass 51126.3476682771
BaseParticle id 11 indSpecies 0 position 0.0880931285320846 0.0109858991475907 0.00623971428141026 orientation 1 0 0 0 velocity 0 0 0 angularVelocity 0 0 0 force 0 0 0 torque 0 0 0 radius 0.000872270665909394 invMass 179857.102350702
BaseParticle id 12 indSpecies 2 position 0.163319779407867 0.154470777367735 0.0910546989263457 orientation 1 0 0 0 velocity 0 0 0 angularVelocity 0 0 0 force 0 0 0 torque 0 0 0 radius 0.00107374606366503 invMass 9642211.22115934
BaseParticle id 13 indSpecies 0 position 0.162139896152411 0.19354252610957 0.116634997616862 orientation 1 0 0 0 velocity 0 0 0 angularVelocity 0 0 0 force 0 0 0 torque 0 0 0 radius 0.00128575627875598 invMass 56157.1984382492
BaseParticle id 14 indSpecies 0 position 0.0513886617018016 0.0664495832599238 0.0195194193911558 orientation 1 0 0 0 velocity 0 0 0 angularVelocity 0 0 0 force 0 0 0 torque 0 0 0 radius 0.000710185263989338 invMass 333247.135537532
BaseParticle id 15 indSpecies 0 position 0.13819273548369 0.0965340510974321 0.152386448390422 orientation 1 0 0 0 velocity 0 0 0 angularVelocity 0 0 0 force 0 0 0 torque 0 0 0 radius 0.00111701949044264 invMass 85644.4336836654
BaseParticle id 16 indSpecies 1 position 0.0803610111769652 0.0199903918244034 0.157847558187463 orientation 1 0 0 0 velocity 0 0 0 angularVelocity 0 0 0 force 0 0 0 torque 0 0 0 radius 0.000929012519254188 invMass 1488732.58926104
BaseParticle id 17 indSpecies 0 position 0.0649253239250506 0.0101325267831492 0.19153976869626 orientation 1 0 0 0 velocity 0 0 0 angularVelocity 0 0 0 force 0 0 0 torque 0 0 0 radius 0.0017217915065162 invMass 23385.1258580203
BaseParticle id 18 indSpecies 0 position 0.0525285543384696 0.169847508361705 0.176968308745913 orientation 1 0 0 0 velocity 0 0 0 angularVelocity 0 0 0 force 0 0 0 torque 0 0 0 radius 0.000543776553651855 invMass 742369.227457719
BaseParticle id 19 indSpecies 0 position 0.151537996389402 0.168204692221987 0.120369343906297 orientation 1 0 0 0 velocity 0 0 0 angularVelocity 0 0 0 force 0 0 0 torque 0 0 0 radius 0.0014606847196241 invMass 38301.1608316365
BaseParticle id 20 indSpecies 0 position 0.018226460536731 0.0889557032948772 0.00702068823667177 orientation 1 0 0 0 velocity 0 0 0 angularVelocity 0 0 0 force 0 0 0 torque 0 0 0 radius 0.000880186348117979 invMass 175048.143924673
BaseParticle id 21 indSpecies 0 position 0.149499077024405 0.169054771429808 0.0865307089998101 orientation 1 0 0 0 velocity 0 0 0 angularVelocity 0 0 0 force 0 0 0 torque 0 0 0 radius 0.00123150862525062 invMass 63910.0299881304
BaseParticle id 22 indSpecies 0 position 0.0243837551918032 0.0151129519426143 0.0867096166250206 orientation 1 0 0 0 velocity 0 0 0 angularVelocity 0 0 0 force 0 0 0 torque 0 0 0 radius 0.000903491251659292 invMass 161848.820912404
BaseParticle id 23 indSpecies 0 position 0.0945157063244696 0.123681919347791 0.0638096933590158 orientation 1 0 0 0 velocity 0 0 0 angularVelocity 0 0 0 force 0 0 0 torque 0 0 0 radius 0.00108168489097494 invMass 94314.6385109543
BaseParticle id 24 indSpecies 0 position 0.0204711967888557 0.166486416602054 0.176895393638969 orientation 1 0 0 0 velocity 0 0 0 angularVelocity 0 0 0 force 0 0 0 torque 0 0 0 radius 0.00113057900815312 invMass 82599.7328162952
BaseParticle id 25 indSpecies 0 position 0.0167419692345504 0.10440387976877 0.0692885590071897 orientation 1 0 0 0 velocity 0 0 0 angularVelocity 0 0 0 force 0 0 0 torque 0 0 0 radius 0.00100457922018806 invMass 117741.299167841
BaseParticle id 26 indSpecies 0 position 0.111885676056253 0.140199481565319 0.192518138333673 orientation 1 0 0 0 velocity 0 0 0 angularVelocity 0 0 0 force 0 0 0 torque 0 0 0 radius 0.000967483416622982 invMass 131810.74240821
BaseParticle id 27 indSpecies 0 position 0.119419643171672 0.115135914352596 0.0534369429075746 orientation 1 0 0 0 velocity 0 0 0 angularVelocity 0 0 0 force 0 0 0 torque 0 0 0 radius 0.00118459408053734 invMass 71807.9817721003
BaseParticle id 28 indSpecies 0 position 0.011747700896349 0.0504451570562598 0.105396249978434 orientation 1 0 0 0 velocity 0 0 0 angularVelocity 0 0 0 force 0 0 0 torque 0 0 0 radius 0.00052164562940796 invMass 840919.989094965
BaseParticle id 29 indSpecies 0 position 0.0308343743618257 0.015551570974708 0.0758229163700501 orientation 1 0 0 0 velocity 0 0 0 angularVelocity 0 0 0 force 0 0 0 torque 0 0 0 radius 0.000880195815196391 invMass 175042.495715542
BaseParticle id 30 indSpecies 0 position 0.0655260310829375 0.117258662434985 0.131375456665293 orientation 1 0 0 0 velocity 0 0 0 angularVelocity 0 0 0 force 0 0 0 torque 0 0 0 radius 0.000561648488235493 invMass 673732.677799263
BaseParticle id 31 indSpecies 0 position 0.151657597579381 0.10478934822158 0.183826974608165 orientation 1 0 0 0 velocity 0 0 0 angularVelocity 0 0 0 force 0 0 0 torque 0 0 0 radius 0.00121353599720074 invMass 66791.8395759643
BaseParticle id 32 indSpecies 0 position 0.108841022375188 0.184269501097249 0.0387425111245899 orientation 1 0 0 0 velocity 0 0 0 angularVelocity 0 0 0 force 0 0 0 torque 0 0 0 radius 0.000591619568893068 invMass 576439.593316448
BaseParticle id 33 indSpecies 0 position 0.149432008574314 0.106306820636329 0.128929267703621 orientation 1 0 0 0 velocity 0 0 0 angularVelocity 0 0 0 force 0 0 0 torque 0 0 0 radius 0.000547239730001238 invMass 728364.105483054
BaseParticle id 34 indSpecies 1 position 0.16723574421626 0.0234408398871861 0.000755097902607993 orientation 1 0 0 0 velocity 0 0 0 angularVelocity 0 0 0 force 0 0 0 torque 0 0 0 radius 0.000680201797258547 invMass 3792870.97917765
BaseParticle id 35 indSpecies 0 position 0.194145905790715 0.193921289039849 0.18482788709474 orientation 1 0 0 0 velocity 0 0 0 angularVelocity 0 0 0 force 0 0 0 torque 0 0 0 radius 0.00053748521421698 invMass 768744.160886925
BaseParticle id 36 indSpecies 0 position 0.117641434895209 0.176991507059902 0.0635770143348938 orientation 1 0 0 0 velocity 0 0 0 angularVelocity 0 0 0 force 0 0 0 torque 0 0 0 radius 0.000587457608526557 invMass 588778.301062747
BaseParticle id 37 indSpecies 0 position 0.0835292107579026 0.160013515539455 0.173833519058457 orientation 1 0 0 0 velocity 0 0 0 angularVelocity 0 0 0 force 0 0 0 torque 0 0 0 radius 0.000777437486632437 invMass 254029.972935581
BaseParticle id 38 indSpecies 0 position 0.00470135379144794 0.191383419007637 0.111845187179888 orientation 1 0 0 0 velocity 0 0 0 angularVelocity 0 0 0 force 0 0 0 torque 0 0 0 radius 0.00150877045842509 invMass 34754.5667469665
BaseParticle id 39 indSpecies 0 position 0.020805608461792 0.146023637479149 0.0442197557126919 orientation 1 0 0 0 velocity 0 0 0 angularVelocity 0 0 0 force 0 0 0 torque 0 0 0 radius 0.000834052919704145 invMass 205731.396478622
BaseParticle id 40 indSpecies 0 position 0.083665949214561 0.137202317139877 0.159738131463772 orientation 1 0 0 0 velocity 0 0 0 angularVelocity 0 0 0 force 0 0 0 torque 0 0 0 radius 0.00106115099248367 invMass 99896.4008174207
BaseParticle id 41 indSpecies 0 position 0.187020950403976 0.0973904444860384 0.11885881636398 orientation 1 0 0 0 velocity 0 0 0 angularVelocity 0 0 0 force 0 0 0 torque 0 0 0 radius 0.00150949949723167 invMass 34704.235111746
BaseParticle id 42 indSpecies 0 position 0.0878930074275536 0.121086466572167 0.155565747660058 orientation 1 0 0 0 velocity 0 0 0 angularVelocity 0 0 0 force 0 0 0 torque 0 0 0 radius 0.000526561897528315 invMass 817585.357861263
BaseParticle id 43 indSpecies 0 position 0.178766383064197 0.194127189932273 0.158790298030907 orientation 1 0 0 0 velocity 0 0 0 angularVelocity 0 0 0 force 0 0 0 torque 0 0 0 radius 0.00179257702753883 invMass 20722.7751872897
BaseParticle id 44 indSpecies 0 position 0.0552128727964937 0.107927331227877 0.0785993349937728 orientation 1 0 0 0 velocity 0 0 0 angularVelocity 0 0 0 force 0 0 0 torque 0 0 0 radius 0.00111130274712612 invMass 86972.9560666357
BaseParticle id 45 indSpecies 0 position 0.192289174541562 0.158252949306506 0.0941350265460694 orientation 1 0 0 0 velocity 0 0 0 angularVelocity 0 0 0 force 0 0 0 torque 0 0 0 radius 0.000572082880366925 invMass 637535.745719852
BaseParticle id 46 indSpecies 0 position 0.0584939633882661 0.0050920212593935 0.103936429970026 orientation 1 0 0 0 velocity 0 0 0 angularVelocity 0 0 0 force 0 0 0 torque 0 0 0 radius 0.000748578279790745 invMass 284557.298854593
BaseParticle id 47 indSpecies 0 position 0.0485293186749058 0.0426494171445729 0.0587852280039478 orientation 1 0 0 0 velocity 0 0 0 angularVelocity 0 0 0 force 0 0 0 torque 0 0 0 radius 0.00119517110589901 invMass 69918.3449303361
BaseParticle id 48 indSpecies 0 position 0.0776132510252174 0.00565721913645305 0.172748369376409 orientation 1 0 0 0 velocity 0 0 0 angularVelocity 0 0 0 force 0 0 0 torque 0 0 0 radius 0.00106697244422006 invMass 98270.1875197777
BaseParticle id 49 indSpecies 0 position 0.183694181233929 0.198228568026583 0.0155861085135619 orientation 1 0 0 0 velocity 0 0 0 angularVelocity 0 0 0 force 0 0 0 torque 0 0 0 radius 0.00066351370371624 invMass 408631.370639308
BaseParticle id 50 indSpecies 0 position 0.182407614232593 0.102763121106882 0.0763913111049763 orientation 1 0 0 0 velocity 0 0 0 angularVelocity 0 0 0 force 0 0 0 torque 0 0 0 radius 0.000452551034460953 invMass 1287889.81637049
BaseParticle id 51 indSpecies 0 position 0.0144059002265279 0.138280497176311 0.0679065943994498 orientation 1 0 0 0 velocity 0 0 0 angularVelocity 0 0 0 force 0 0 0 torque 0 0 0 radius 0.00103755434286772 invMass 106868.284357861
BaseParticle id 52 indSpecies 0 position 0.110363964074884 0.174243260757771 0.169338059267646 orientation 1 0 0 0 velocity 0 0 0 angularVelocity 0 0 0 force 0 0 0 torque 0 0 0 radius 0.00171106537233078 invMass 23827.6706169762
BaseParticle id 53 indSpecies 0 position 0.0859176333193503 0.0760756547785591 0.0996890752579187 orientation 1 0 0 0 velocity 0 0 0 angularVelocity 0 0 0 force 0 0 0 torque 0 0 0 radius 0.00111170515432993 invMass 86878.5446745768
BaseParticle id 54 indSpecies 0 position 0.00652860607343855 0.142901302368472 0.0463799068272301 orientation 1 0 0 0 velocity 0 0 0 angularVelocity 0 0 0 force 0 0 0 torque 0 0 0 radius 0.00103668123126415 invMass 107138.531018067
BaseParticle id 55 indSpecies 0 position 0.0658009968085205 0.187576941039807 0.0462242450134603 orientation 1 0 0 0 velocity 0 0 0 angularVelocity 0 0 0 force 0 0 0 torque 0 0 0 radius 0.00209562391792805 invMass 12970.0411943708
BaseParticle id 56 indSpecies 0 position 0.162647560273625 0.0967121518247648 0.0203289678130961 orientation 1 0 0 0 velocity 0 0 0 angularVelocity 0 0 0 force 0 0 0 torque 0 0 0 radius 0.00100476656356358 invMass 117675.451216722
BaseParticle id 57 indSpecies 2 position 0.193163289322366 0.145648388615206 0.00180338546465766 orientation 1 0 0 0 velocity 0 0 0 angularVelocity 0 0 0 force 0 0 0 torque 0 0 0 radius 0.0010265674010944 invMass 11033644.5242892
BaseParticle id 58 indSpecies 0 position 0.130830807675765 0.125880977766699 0.155982714932428 orientation 1 0 0 0 velocity 0 0 0 angularVelocity 0 0 0 force 0 0 0 torque 0 0 0 radius 0.000878832339504751 invMass 175858.476137658
BaseParticle id 59 indSpecies 0 position 0.0848593457742973 0.0354283896876234 0.168056683458335 orientation 1 0 0 0 velocity 0 0 0 angularVelocity 0 0 0 force 0 0 0 torque 0 0 0 radius 0.00104952916651189 invMass 103251.853974712
BaseParticle id 60 indSpecies 1 position 0.0440646789557629 0.0500999867449515 0.00439369491823607 orientation 1 0 0 0 velocity 0 0 0 angularVelocity 0 0 0 force 0 0 0 torque 0 0 0 radius 0.000974823702075921 invMass 1288555.57571797
BaseParticle id 61 indSpecies 0 position 0.0853191117892795 0.0425666967010436 0.188192428659469 orientation 1 0 0 0 velocity 0 0 0 angularVelocity 0 0 0 force 0 0 0 torque 0 0 0 radius 0.00108643397899876 invMass 93083.2150024011
BaseParticle id 62 indSpecies 0 position 0.0016778592004647 0.0194990450334744 0.088518636777514 orientation 1 0 0 0 velocity 0 0 0 angularVelocity 0 0 0 force 0 0 0 torque 0 0 0 radius 0.000671935736616187 invMass 393457.815702915
BaseParticle id 63 indSpecies 0 position 0.0755182869029061 0.156805660243327 0.147508181121658 orientation 1 0 0 0 velocity 0 0 0 angularVelocity 0 0 0 force 0 0 0 torque 0 0 0 radius 0.00126515917571148 invMass 58944.8526247521
BaseParticle id 64 indSpecies 0 position 0.0223977224692724 0.0266924939801055 0.0671024236203149 orientation 1 0 0 0 velocity 0 0 0 angularVelocity 0 0 0 force 0 0 0 torque 0 0 0 radius 0.00161445096247658 invMass 28366.569667873
BaseParticle id 65 indSpecies 0 position 0.0792756262428354 0.00291742402788491 0.099451259431009 orientation 1 0 0 0 velocity 0 0 0 angularVelocity 0 0 0 force 0 0 0 torque 0 0 0 radius 0.00110050152970341 invMass 89559.0428252085
BaseParticle id 66 indSpecies 0 position 0.180914968083692 0.114980747071113 0.198183648289942 orientation 1 0 0 0 velocity 0 0 0 angularVelocity 0 0 0 force 0 0 0 torque 0 0 0 radius 0.000409535424560321 invMass 1737828.73201309
BaseParticle id 67 indSpecies 0 position 0.171466746766617 0.049290044187298 0.0491621346686388 orientation 1 0 0 0 velocity 0 0 0 angularVelocity 0 0 0 force 0 0 0 torque 0 0 0 radius 0.00105026787655164 invMass 103034.139384774
BaseParticle id 68 indSpecies 0 position 0.175905776791362 0.15917152002531 0.0868897167156546 orientation 1 0 0 0 velocity 0 0 0 angularVelocity 0 0 0 force 0 0 0 torque 0 0 0 radius 0.0010876913136053 invMass 92760.784802861
BaseParticle id 69 indSpecies 0 position 0.152900531373079 0.101486756558077 0.142840581999309 orientation 1 0 0 0 velocity 0 0 0 angularVelocity 0 0 0 force 0 0 0 torque 0 0 0 radius 0.00177557470376408 invMass 21323.7974077377
BaseParticle id 70 indSpecies 0 position 0.178241955322919 0.180641780439167 0.184220723263714 orientation 1 0 0 0 velocity 0 0 0 angularVelocity 0 0 0 force 0 0 0 torque 0 0 0 radius 0.00144128538168862 invMass 39868.6426054002
BaseParticle id 71 indSpecies 0 position 0.0605104736420229 0.0138838535045424 0.0214306765967694 orientation 1 0 0 0 velocity 0 0 0 angularVelocity 0 0 0 force 0 0 0 torque 0 0 0 radius 0.000916309122868135 invMass 155151.280272273
BaseParticle id 72 indSpecies 0 position 0.0276507856066797 0.0871677643738987 0.15430256337458 orientation 1 0 0 0 velocity 0 0 0 angularVelocity 0 0 0 force 0 0 0 torque 0 0 0 radius 0.000476192207429327 invMass 1105438.38913601
BaseParticle id 73 indSpecies 0 position 0.0791695582874403 0.197023893895537 0.151026984163535 orientation 1 0 0 0 velocity 0 0 0 angularVelocity 0 0 0 force 0 0 0 torque 0 0 0 radius 0.000832454321973402 invMass 206918.898440632
BaseParticle id 74 indSpecies 0 position 0.134367553578347 0.150706655019236 0.0971210033659628 orientation 1 0 0 0 velocity 0 0 0 angularVelocity 0 0 0 force 0 0 0 torque 0 0 0 radius 0.000436581211082248 invMass 1434452.82861276
BaseParticle id 75 indSpecies 0 position 0.062843520694558 0.0116022165756652 0.0900605338718179 orientation 1 0 0 0 velocity 0 0 0 angularVelocity 0 0 0 force 0 0 0 torque 0 0 0 radius 0.00084494498955143 invMass 197877.352059111
BaseParticle id 76 indSpecies 0 position 0.0493549698504108 0.102719762639404 0.152029676407548 orientation 1 0 0 0 velocity 0 0 0 angularVelocity 0 0 0 force 0 0 0 torque 0 0 0 radius 0.00186468306200301 invMass 18410.5311130983
BaseParticle id 77 indSpecies 0 position 0.107953579250766 0.172035969074782 0.144729421898043 orientation 1 0 0 0 velocity 0 0 0 angularVelocity 0 0 0 force 0 0 0 torque 0 0 0 radius 0.000746868422357226 invMass 286516.146542522
BaseParticle id 78 indSpecies 0 position 0.189359082105235 0.0824983340851047 0.0459027006794673 orientation 1 0 0 0 velocity 0 0 0 angularVelocity 0 0 0 force 0 0 0 torque 0 0 0 radius 0.000871131789651705 invMass 180563.434828608
BaseParticle id 79 indSpecies 0 position 0.143337337539217 0.105103696598575 0.0215006813206704 orientation 1 0 0 0 velocity 0 0 0 angularVelocity 0 0 0 force 0 0 0 torque 0 0 0 radius 0.00116964832182822 invMass 74595.9911733656
BaseParticle id 80 indSpecies 0 position 0.097300727574806 0.133943955289252 0.186046828156294 orientation 1 0 0 0 velocity 0 0 0 angularVelocity 0 0 0 force 0 0 0 torque 0 0 0 radius 0.00143582321354011 invMass 40325.3813961409
BaseParticle id 81 indSpecies 0 position 0.101736055219792 0.0113140417157541 0.138629094940956 orientation 1 0 0 0 velocity 0 0 0 angularVelocity 0 0 0 force 0 0 0 torque 0 0 0 radius 0.00159860526052573 invMass 29218.4841951753
BaseParticle id 82 indSpecies 0 position 0.018293644284556 0.184516249425228 0.1861496521289 orientation 1 0 0 0 velocity 0 0 0 angularVelocity 0 0 0 force 0 0 0 torque 0 0 0 radius 0.000591423568751986 invMass 577012.886440821
BaseParticle id 83 indSpecies 0 position 0.0294316574657041 0.134825231009326 0.173556361930858 orientation 1 0 0 0 velocity 0 0 0 angularVelocity 0 0 0 force 0 0 0 torque 0 0 0 radius 0.0010231864459823 invMass 111433.830534595
BaseParticle id 84 indSpecies 0 position 0.15909862037832 0.0205551666947499 0.0433985961196957 orientation 1 0 0 0 velocity 0 0 0 angularVelocity 0 0 0 force 0 0 0 torque 0 0 0 radius 0.00134708247514584 invMass 48831.3618433699
BaseParticle id 85 indSpecies 0 position 0.188450740102259 0.0336065483897863 0.12559850632623 orientation 1 0 0 0 velocity 0 0 0 angularVelocity 0 0 0 force 0 0 0 torque 0 0 0 radius 0.000917083184217289 invMass 154758.746837813
BaseParticle id 86 indSpecies 0 position 0.045961917707732 0.138254783918844 0.0962683155236129 orientation 1 0 0 0 velocity 0 0 0 angularVelocity 0 0 0 force 0 0 0 torque 0 0 0 radius 0.00146756367862765 invMass 37765.0906076267
BaseParticle id 87 indSpecies 0 position 0.0471374962039874 0.131777238723098 0.0159315362424296 orientation 1 0 0 0 velocity 0 0 0 angularVelocity 0 0 0 force 0 0 0 torque 0 0 0 radius 0.00158800226709504 invMass 29807.6707684301
BaseParticle id 88 indSpecies 0 position 0.137909682339141 0.0416408020615197 0.14281289992592 orientation 1 0 0 0 velocity 0 0 0 angularVelocity 0 0 0 force 0 0 0 torque 0 0 0 radius 0.000494938288553418 invMass 984528.37701183
BaseParticle id 89 indSpecies 0 position 0.196950446630874 0.180243182200712 0.16214236657867 orientation 1 0 0 0 velocity 0 0 0 angularVelocity 0 0 0 force 0 0 0 torque 0 0 0 radius 0.000652518283691162 invMass 429638.646196569
BaseParticle id 90 indSpecies 0 position 0.0572990467238249 0.0536988948903057 0.0229415101716839 orientation 1 0 0 0 velocity 0 0 0 angularVelocity 0 0 0 force 0 0 0 torque 0 0 0 radius 0.000417789418405184 invMass 1636850.76823396
BaseParticle id 91 indSpecies 0 position 0.171618960265425 0.171426496308831 0.0610141598982605 orientation 1 0 0 0 velocity 0 0 0 angularVelocity 0 0 0 force 0 0 0 torque 0 0 0 radius 0.00139263649847629 invMass 44194.4848413794
BaseParticle id 92 indSpecies 0 position 0.193493234558503 0.14408459351949 0.0664764066538993 orientation 1 0 0 0 velocity 0 0 0 angularVelocity 0 0 0 force 0 0 0 torque 0 0 0 radius 0.001118167564725 invMass 85380.8991651331
BaseParticle id 93 indSpecies 0 position 0.156813818256544 0.0394750395422102 0.183479423463829 orientation 1 0 0 0 velocity 0 0 0 angularVelocity 0 0 0 force 0 0 0 torque 0 0 0 radius 0.00139454980070957 invMass 44012.8317056908
BaseParticle id 94 indSpecies 0 position 0.18416621947273 0.00254964064569245 0.141062303873652 orientation 1 0 0 0 velocity 0 0 0 angularVelocity 0 0 0 force 0 0 0 torque 0 0 0 radius 0.000607997733671681 invMass 531099.036746107
BaseParticle id 95 indSpecies 0 position 0.12031773205817 0.104772288813468 0.0779851229135086 orientation 1 0 0 0 velocity 0 0 0 angularVelocity 0 0 0 force 0 0 0 torque 0 0 0 radius 0.000761855041428149 invMass 269938.206323677
BaseParticle id 96 indSpecies 0 position 0.129358270643877 0.0719477028847228 0.0666134714459875 orientation 1 0 0 0 velocity 0 0 0 angularVelocity 0 0 0 force 0 0 0 torque 0 0 0 radius 0.00095004228678478 invMass 139204.279232488
BaseParticle id 97 indSpecies 0 position 0.0882780914304051 0.000330467521836519 0.165312321702659 orientation 1 0 0 0 velocity 0 0 0 angularVelocity 0 0 0 force 0 0 0 torque 0 0 0 radius 0.000576121340732256 invMass 624222.626861309
BaseParticle id 98 indSpecies 0 position 0.0910990600557075 0.0813718787567951 0.0171463131744915 orientation 1 0 0 0 velocity 0 0 0 angularVelocity 0 0 0 force 0 0 0 torque 0 0 0 radius 0.000733156171686608 invMass 302894.864903764
BaseParticle id 99 indSpecies 0 position 0.135119377882109 0.143337481335423 0.186410961126526 orientation 1 0 0 0 velocity 0 0 0 angularVelocity 0 0 0 force 0 0 0 torque 0 0 0 radius 0.000539666718440099 invMass 759459.270774367
BaseParticle id 100 indSpecies 0 position 0.00195410940614149 0.133186255085109 0.0533126329506629 orientation 1 0 0 0 velocity 0 0 0 angularVelocity 0 0 0 force 0 0 0 torque 0 0 0 radius 0.00101828942312312 invMass 113049.252896602
BaseParticle id 101 indSpecies 0 position 0.0211972785916205 0.116799067783357 0.0318630542309368 orientation 1 0 0 0 velocity 0 0 0 angularVelocity 0 0 0 force 0 0 0 torque 0 0 0 radius 0.00115122524794467 invMass 78234.8902964686