<?xml version="1.0"?>
<!-- time 1.00013-->
<VTKFile type="UnstructuredGrid" version="0.1" byte_order="LittleEndian">
<UnstructuredGrid>
<Piece NumberOfPoints="3" NumberOfCells="0">
<Points>
  <DataArray type="Float32" Name="Position" NumberOfComponents="3" format="ascii">
	23.351 -14.1767 -3.90333
	-0.0411989 -0.0490015 0.0081553
	0.00435738 -0.0664869 0.0472269
  </DataArray>
</Points>
<PointData  Vectors="vector">
  <DataArray type="Float32" Name="Velocity" NumberOfComponents="3" format="ascii">
 52.6634 -34.3365 -8.93731
 -0.239126 1.50293 0.520078
 0.213209 0.0147902 -0.177738
  </DataArray>
  <DataArray type="Float32" Name="AngularVelocity" NumberOfComponents="3" format="ascii">
	55187.9 41893 373861
	1009.23 -1028.61 2089.75
	-270.297 127.306 -562.373
  </DataArray>
  <DataArray type="Float32" Name="Radius" format="ascii">
	0.008
	0.008
	0.008
  </DataArray>
  <DataArray type="Float32" Name="speciesType" format="ascii">
	0
	0
	0
  </DataArray>
  <DataArray type="Float32" Name="fullLiquidVolume" format="ascii">
	1.19052e-07
	2.04315e-07
	2.67253e-07
  </DataArray>
  <DataArray type="Float32" Name="liquidFilmVolume" format="ascii">
	1.19052e-07
	1.94315e-07
	2.57253e-07
  </DataArray>
  <DataArray type="Float32" Name="liquidBridgeVolume" format="ascii">
	0
	1e-08
	1e-08
  </DataArray>
  <DataArray type="Float32" Name="totalEvaporatedLiquidVolume" format="ascii">
	0
	0
	0
  </DataArray>
  <DataArray type="Int32" Name="Id" format="ascii">
	0
	1
	2
  </DataArray>
</PointData>
<Cells>
  <DataArray type="Int32" Name="connectivity" format="ascii">
  </DataArray>
  <DataArray type="Int32" Name="offsets" format="ascii">
  </DataArray>
  <DataArray type="UInt8"  Name="types" format="ascii">
  </DataArray>
</Cells>
</Piece>
</UnstructuredGrid>
</VTKFile>
