<?xml version="1.0"?>
<!-- time 1.00013-->
<VTKFile type="UnstructuredGrid" version="0.1" byte_order="LittleEndian">
<UnstructuredGrid>
<Piece NumberOfPoints="3" NumberOfCells="0">
<Points>
  <DataArray type="Float32" Name="Position" NumberOfComponents="3" format="ascii">
	7.5728 6.09784 -1.94032
	-0.914189 -3.69108 0.0764822
	-0.0284043 -0.0603194 0.0505222
  </DataArray>
</Points>
<PointData  Vectors="vector">
  <DataArray type="Float32" Name="Velocity" NumberOfComponents="3" format="ascii">
 9.8173 4.1576 -2.624
 -8.3705 -37.1657 0.37228
 2.45936 -0.519774 -0.925619
  </DataArray>
  <DataArray type="Float32" Name="AngularVelocity" NumberOfComponents="3" format="ascii">
	8037.1 -2492.64 43129.6
	1026.12 212.459 -9144.75
	-169.362 -123.077 -321.219
  </DataArray>
  <DataArray type="Float32" Name="Radius" format="ascii">
	0.008
	0.008
	0.008
  </DataArray>
  <DataArray type="Float32" Name="speciesType" format="ascii">
	0
	0
	0
  </DataArray>
  <DataArray type="Float32" Name="fullLiquidVolume" format="ascii">
	6.54319e-08
	8.19043e-07
	1.70813e-07
  </DataArray>
  <DataArray type="Float32" Name="liquidFilmVolume" format="ascii">
	6.54319e-08
	8.19043e-07
	1.65813e-07
  </DataArray>
  <DataArray type="Float32" Name="liquidBridgeVolume" format="ascii">
	0
	0
	5e-09
  </DataArray>
</PointData>
<Cells>
  <DataArray type="Int32" Name="connectivity" format="ascii">
  </DataArray>
  <DataArray type="Int32" Name="offsets" format="ascii">
  </DataArray>
  <DataArray type="UInt8"  Name="types" format="ascii">
  </DataArray>
</Cells>
</Piece>
</UnstructuredGrid>
</VTKFile>
