MercuryDPM 0.14 name PolydisperseInsertionBoundarySelfTest revision 5628 repository https://svn.mercurydpm.org/SourceCode/Branches/Timo
dataFile    fileType ONE_FILE saveCount 10 counter 51 lastSavedTimeStep 500
fStatFile   fileType ONE_FILE saveCount 20 counter 26 lastSavedTimeStep 500
eneFile     fileType ONE_FILE saveCount 20 counter 26 lastSavedTimeStep 500
restartFile fileType ONE_FILE saveCount 20 counter 26 lastSavedTimeStep 500
statFile    fileType ONE_FILE saveCount 20 counter 0
interactionFile fileType NO_FILE saveCount 0 counter 0
xMin 0 xMax 1 yMin 0 yMax 1 zMin 0 zMax 1
timeStep 0.001 time 0.5 ntimeSteps 500 timeMax 0.5
systemDimensions 2 particleDimensions 3 gravity 0 0 0 writeVTK 0 NO_FILE NO_FILE 0 0 0 0 random  0 1103515245 12345 1073741824 607 273 784607267
Species 2
LinearViscoelasticSpecies id 0 density 8 stiffness 0.424347369600115 dissipation 0.000855896547673955
LinearViscoelasticSpecies id 1 density 1 stiffness 3.39477895680092 dissipation 0.00684717238139164
LinearViscoelasticMixedSpecies idA 1 idB 0 stiffness 0.754395323733538 dissipation 0.00152159386253147
Walls 4
InfiniteWall id 0 indSpecies 0 position 0 0 0 orientation 0 0 1 0 velocity 0 0 0 angularVelocity 0 0 0 force -0.00868628112259717 0 0 torque 0 0 0
InfiniteWall id 1 indSpecies 0 position 1 1 1 orientation 1 0 0 0 velocity 0 0 0 angularVelocity 0 0 0 force 0.0244231231381233 0 0 torque 0 0 0
InfiniteWall id 2 indSpecies 0 position 0 0 0 orientation 0.707106781186548 0 0 -0.707106781186548 velocity 0 0 0 angularVelocity 0 0 0 force 0 0 0 torque 0 0 0
InfiniteWall id 3 indSpecies 0 position 1 1 1 orientation 0.707106781186548 0 0 0.707106781186548 velocity 0 0 0 angularVelocity 0 0 0 force 0 0.00449273100775257 0 torque 0 0 0
Boundaries 1
PolydisperseInsertionBoundary id 0 maxFailed 1 massInserted 0.0512898142700528 volumeInserted 0.0184823217135343 numberOfParticlesInserted 208 isActivated 1 distribution 0 initialVolume 0 samplingInterval 0 variableCumulativeVolumeFlowRate 0 noParticleToCopy numberOfGeneranda 2 BaseParticle id 0 indSpecies 0 position 0 0 0 orientation 1 0 0 0 velocity 0 0 0 angularVelocity 0 0 0 force 0 0 0 torque 0 0 0 radius 0.02 invMass 3730.1939787163 weight 1 sizeDispersity 0.2BaseParticle id 0 indSpecies 1 position 0 0 0 orientation 1 0 0 0 velocity 0 0 0 angularVelocity 0 0 0 force 0 0 0 torque 0 0 0 radius 0.04 invMass 3730.1939787163 weight 1 sizeDispersity 0.4 posMin 0 0 0 posMax 1 1 0 velMin -1 -1 0 velMax 1 1 0 
Particles 208
BaseParticle id 0 indSpecies 0 position 0.248714376280988 0.578752012562966 0 orientation 1 0 0 0 velocity -0.195756558866407 0.191993443598135 0 angularVelocity 0 0 0 force -0.00441088066302921 -0.00155299855769831 0 torque 0 0 0 radius 0.0197025440747826 invMass 3901.7054530735
BaseParticle id 1 indSpecies 0 position 0.810727005399084 0.502288965026058 0 orientation 1 0 0 0 velocity -0.088675300529979 0.271140589954401 0 angularVelocity 0 0 0 force 0.000456977272756908 -0.00217109995790809 0 torque 0 0 0 radius 0.0167945201166025 invMass 6299.68170427735
BaseParticle id 2 indSpecies 1 position 0.40682583603027 0.473494958298604 0 orientation 1 0 0 0 velocity 0.603516691025232 -0.250036394289044 0 angularVelocity 0 0 0 force 0.000661088951018467 -0.00479434326952037 0 torque 0 0 0 radius 0.0263268531837251 invMass 13083.2167410382
BaseParticle id 3 indSpecies 0 position 0.763450135361594 0.0291828368217308 0 orientation 1 0 0 0 velocity -0.0952569415761106 -0.141286293169786 0 angularVelocity 0 0 0 force 0.000756935133183231 -0.000990934617196936 0 torque 0 0 0 radius 0.0206167359085598 invMass 3405.34941270093
BaseParticle id 4 indSpecies 1 position 0.759695239244325 0.192571545933384 0 orientation 1 0 0 0 velocity 0.342291954434114 0.165137057641747 0 angularVelocity 0 0 0 force -0.00294044308682464 -0.00171094545703407 0 torque 0 0 0 radius 0.0386681761008984 invMass 4129.05176334121
BaseParticle id 5 indSpecies 1 position 0.517866821277888 0.933983684995104 0 orientation 1 0 0 0 velocity -0.445472961690873 -0.198564654448821 0 angularVelocity 0 0 0 force 0 0 0 torque 0 0 0 radius 0.0303597496986764 invMass 8531.33175646871
BaseParticle id 6 indSpecies 0 position 0.0993924227971306 0.354385740523826 0 orientation 1 0 0 0 velocity -0.0751691181829234 -0.518392526456027 0 angularVelocity 0 0 0 force 0 0 0 torque 0 0 0 radius 0.0192075596868921 invMass 4211.18993345282
BaseParticle id 7 indSpecies 1 position 0.872427830575641 0.851870122089055 0 orientation 1 0 0 0 velocity -0.0459623213232492 0.20305153063279 0 angularVelocity 0 0 0 force -0.00614817605934134 -0.000657204931300999 0 torque 0 0 0 radius 0.0487275923856277 invMass 2063.41474669336
BaseParticle id 8 indSpecies 1 position 0.959916860321056 0.583967849001671 0 orientation 1 0 0 0 velocity 0.18027516172438 -0.0842800242003117 0 angularVelocity 0 0 0 force -0.00290295955867285 0 0 torque 0 0 0 radius 0.0435591348823541 invMass 2888.50852376343
BaseParticle id 9 indSpecies 0 position 0.12581996983833 0.0297450695490999 0 orientation 1 0 0 0 velocity -0.0579484673387373 -0.19454082387663 0 angularVelocity 0 0 0 force 0 0 0 torque 0 0 0 radius 0.0222978913501856 invMass 2691.72085159282
BaseParticle id 10 indSpecies 0 position 0.577448413077015 0.329271149108032 0 orientation 1 0 0 0 velocity 0.428441594489861 -0.0986509193149975 0 angularVelocity 0 0 0 force -0.000721205832961333 -0.00116599000169557 0 torque 0 0 0 radius 0.0178377395627669 invMass 5257.77439811189
BaseParticle id 11 indSpecies 0 position 0.860376937590591 0.239603059383438 0 orientation 1 0 0 0 velocity 0.260706731315258 0.417612219740796 0 angularVelocity 0 0 0 force 0 0 0 torque 0 0 0 radius 0.0232806906483316 invMass 2365.01458664641
BaseParticle id 12 indSpecies 0 position 0.0775646783964181 0.323263924021975 0 orientation 1 0 0 0 velocity -0.0183836705681342 -0.0131741510959876 0 angularVelocity 0 0 0 force -0.00184533427123837 0.00308892182453794 0 torque 0 0 0 radius 0.0186129506578548 invMass 4627.81218830569
BaseParticle id 13 indSpecies 0 position 0.546233038476887 0.387204124513449 0 orientation 1 0 0 0 velocity -0.0363416851276115 -0.243820503952957 0 angularVelocity 0 0 0 force 0 0 0 torque 0 0 0 radius 0.0199105694108544 invMass 3780.68385490249
BaseParticle id 14 indSpecies 1 position 0.0377887958517958 0.783533826508964 0 orientation 1 0 0 0 velocity 0.211062021359204 0.0567072591230041 0 angularVelocity 0 0 0 force -0.00127561319408238 0.00204251103652501 0 torque 0 0 0 radius 0.0368577617883144 invMass 4767.87119233894
BaseParticle id 15 indSpecies 0 position 0.982674181023691 0.818489780206089 0 orientation 1 0 0 0 velocity 0.229021388134647 0.0572172106132527 0 angularVelocity 0 0 0 force 0 0 0 torque 0 0 0 radius 0.016405301071326 invMass 6758.78744559213
BaseParticle id 16 indSpecies 1 position 0.606429506033447 0.761199477726854 0 orientation 1 0 0 0 velocity -0.110010222065219 0.227468572908969 0 angularVelocity 0 0 0 force 0 0 0 torque 0 0 0 radius 0.0523149293993461 invMass 1667.3795090504
BaseParticle id 17 indSpecies 0 position 0.473463804862606 0.719895971213968 0 orientation 1 0 0 0 velocity 0.0176020857178099 -0.279745308848844 0 angularVelocity 0 0 0 force 0.000583084213724608 0.00295292570889593 0 torque 0 0 0 radius 0.0162808275294669 invMass 6914.9966937589
BaseParticle id 18 indSpecies 0 position 0.543204857673988 0.182034226560645 0 orientation 1 0 0 0 velocity 0.295273916160685 0.29838232863012 0 angularVelocity 0 0 0 force 0.000118327349300635 -8.67231223723078e-05 0 torque 0 0 0 radius 0.0174571818174262 invMass 5609.17511075286
BaseParticle id 19 indSpecies 0 position 0.175837502182918 0.209163629753707 0 orientation 1 0 0 0 velocity 0.0588848267650391 0.216507365781804 0 angularVelocity 0 0 0 force 0 0 0 torque 0 0 0 radius 0.0188631427708425 invMass 4446.10022262181
BaseParticle id 20 indSpecies 0 position 0.807197249699174 0.336072964911187 0 orientation 1 0 0 0 velocity 0.102588479344998 -0.165251991996213 0 angularVelocity 0 0 0 force -0.00177043941383128 0.00224043660279259 0 torque 0 0 0 radius 0.022489311852968 invMass 2623.57149414093
BaseParticle id 21 indSpecies 0 position 0.969429822534159 0.354451199277268 0 orientation 1 0 0 0 velocity 0.0456881025353308 -0.037250882877929 0 angularVelocity 0 0 0 force 0 0 0 torque 0 0 0 radius 0.0232920823476351 invMass 2361.54623716298
BaseParticle id 22 indSpecies 1 position 0.826813250042651 0.0984670744371117 0 orientation 1 0 0 0 velocity 0.219527924745061 0.0131985272279597 0 angularVelocity 0 0 0 force -0.000540498577777845 0.000311736181391128 0 torque 0 0 0 radius 0.0507792327452644 invMass 1823.27839999914
BaseParticle id 23 indSpecies 1 position 0.101520361137019 0.283164288745873 0 orientation 1 0 0 0 velocity 0.558401872784939 0.435014698164923 0 angularVelocity 0 0 0 force 0.00184533427123837 -0.00308892182453794 0 torque 0 0 0 radius 0.0326458666542118 invMass 6861.62190632897
BaseParticle id 24 indSpecies 0 position 0.821795733445434 0.267153719857203 0 orientation 1 0 0 0 velocity -0.352183760255863 0.224069417708505 0 angularVelocity 0 0 0 force 0.00240221808295422 0.00381560106439368 0 torque 0 0 0 radius 0.0203536408950075 invMass 3539.11830255394
BaseParticle id 25 indSpecies 1 position 0.948933904660254 0.248204607448722 0 orientation 1 0 0 0 velocity -0.0280182881345796 -0.252986014375836 0 angularVelocity 0 0 0 force -0.003262817736977 0.000344284925523913 0 torque 0 0 0 radius 0.0550274062463758 invMass 1432.76268802278
BaseParticle id 26 indSpecies 0 position 0.889777899288263 0.623107180127444 0 orientation 1 0 0 0 velocity 0.0660548028385977 -0.471196631204687 0 angularVelocity 0 0 0 force -0.00271611628394891 0.00133289569575724 0 torque 0 0 0 radius 0.0224005406215782 invMass 2654.88616375181
BaseParticle id 27 indSpecies 0 position 0.0745707547488935 0.216783827947691 0 orientation 1 0 0 0 velocity 0.461167597962821 0.392862747713738 0 angularVelocity 0 0 0 force -0.00295669440345672 0.00172456092094402 0 torque 0 0 0 radius 0.021840945499166 invMass 2864.2247835797
BaseParticle id 28 indSpecies 1 position 0.229714798815731 0.44390273642962 0 orientation 1 0 0 0 velocity 0.0217642335852726 -0.139580261144779 0 angularVelocity 0 0 0 force 0.000120668178934611 -0.000372981602348365 0 torque 0 0 0 radius 0.0495581010342034 invMass 1961.40564317147
BaseParticle id 29 indSpecies 1 position 0.786864073374768 0.565260352750745 0 orientation 1 0 0 0 velocity 0.531211908358176 0.122384023757505 0 angularVelocity 0 0 0 force -0.00114367067872161 0.00301800841848547 0 torque 0 0 0 radius 0.0540823836940505 invMass 1509.1899890816
BaseParticle id 30 indSpecies 1 position 0.310047122795589 0.697318269456285 0 orientation 1 0 0 0 velocity -0.80798165737625 -0.271217610523745 0 angularVelocity 0 0 0 force 0 0 0 torque 0 0 0 radius 0.0246312539869628 invMass 15975.403021072
BaseParticle id 31 indSpecies 0 position 0.764021511598478 0.134682630907165 0 orientation 1 0 0 0 velocity -0.290858229676188 0.197090385649665 0 angularVelocity 0 0 0 force 0.00139224784661185 -0.00188785816201598 0 torque 0 0 0 radius 0.0219650076944707 invMass 2815.96546615773
BaseParticle id 32 indSpecies 1 position 0.741275062041816 0.470796945603613 0 orientation 1 0 0 0 velocity -0.031319089949265 0.587418597873568 0 angularVelocity 0 0 0 force 0 0 0 torque 0 0 0 radius 0.0241792906819104 invMass 16888.0972679611
BaseParticle id 33 indSpecies 0 position 0.0210450913453138 0.841639205450528 0 orientation 1 0 0 0 velocity -0.44870978708891 0.0546571128177752 0 angularVelocity 0 0 0 force -0.000759267865112686 -0.00129110170817883 0 torque 0 0 0 radius 0.0207690334722688 invMass 3330.98398707749
BaseParticle id 34 indSpecies 1 position 0.138434456568623 0.732634083701518 0 orientation 1 0 0 0 velocity -0.014708674062025 -0.0559471007044054 0 angularVelocity 0 0 0 force 0.00634043665188359 -0.00225723986312222 0 torque 0 0 0 radius 0.034609398265733 invMass 5758.76352342347
BaseParticle id 35 indSpecies 1 position 0.248390207681436 0.98008880762401 0 orientation 1 0 0 0 velocity -0.408280381023626 -0.238947454233638 0 angularVelocity 0 0 0 force 0.000916094429975936 -0.00336687744212439 0 torque 0 0 0 radius 0.0250445769717502 invMass 15197.4348211264
BaseParticle id 36 indSpecies 0 position 0.160578054324106 0.536350793856439 0 orientation 1 0 0 0 velocity 0.463442699676783 0.287448586260009 0 angularVelocity 0 0 0 force -0.00152160741009549 0.00135388209945248 0 torque 0 0 0 radius 0.0160671143680186 invMass 7194.61814238082
BaseParticle id 37 indSpecies 0 position 0.852003976959554 0.969426371876193 0 orientation 1 0 0 0 velocity 0.0141596920195664 0.210458402201573 0 angularVelocity 0 0 0 force 0 0 0 torque 0 0 0 radius 0.0222722264097331 invMass 2701.03682533681
BaseParticle id 38 indSpecies 0 position 0.504897463475049 0.130388448020472 0 orientation 1 0 0 0 velocity -0.249036878701422 -0.222326990519055 0 angularVelocity 0 0 0 force 0 0 0 torque 0 0 0 radius 0.0186840969448126 invMass 4575.14715913744
BaseParticle id 39 indSpecies 1 position 0.331685959105164 0.876707019105501 0 orientation 1 0 0 0 velocity -0.0139162798264803 0.286382560090282 0 angularVelocity 0 0 0 force -7.87118467036552e-05 -0.00181913137113419 0 torque 0 0 0 radius 0.0557093837263906 invMass 1380.78585090145
BaseParticle id 40 indSpecies 0 position 0.97941709502721 0.48165695591157 0 orientation 1 0 0 0 velocity 0.329477241059089 0.394909303090318 0 angularVelocity 0 0 0 force 0.00279001647000233 0.00324947994636701 0 torque 0 0 0 radius 0.0221721025349832 invMass 2737.79400856772
BaseParticle id 41 indSpecies 0 position 0.0817207570192556 0.809380020109024 0 orientation 1 0 0 0 velocity 0.276608296291695 0.200084996384508 0 angularVelocity 0 0 0 force 0.00045132591158985 2.3760657916317e-05 0 torque 0 0 0 radius 0.0177159307508581 invMass 5366.97387979263
BaseParticle id 42 indSpecies 1 position 0.0953104974228438 0.661061363201087 0 orientation 1 0 0 0 velocity -0.17017923860625 0.427404419125992 0 angularVelocity 0 0 0 force 0.00481508033624213 0.000147642401722786 0 torque 0 0 0 radius 0.0355305969607731 invMass 5322.35548229401
BaseParticle id 43 indSpecies 0 position 0.731760727675958 0.112185686368476 0 orientation 1 0 0 0 velocity 0.395652178509728 -0.311463410168448 0 angularVelocity 0 0 0 force 0.0021609959733717 -0.00256070983919207 0 torque 0 0 0 radius 0.0188216150302239 invMass 4475.59463775589
BaseParticle id 44 indSpecies 1 position 0.0306334982867836 0.675392149540639 0 orientation 1 0 0 0 velocity -0.505977388554434 -0.129347590399131 0 angularVelocity 0 0 0 force -0.00385340029914543 0.00339106592861617 0 torque 0 0 0 radius 0.0331977188501528 invMass 6525.09235398344
BaseParticle id 45 indSpecies 0 position 0.168991912773392 0.261523012245527 0 orientation 1 0 0 0 velocity 0.473127448211635 -0.044990276789143 0 angularVelocity 0 0 0 force 0 0 0 torque 0 0 0 radius 0.0223639448151328 invMass 2667.94067280648
BaseParticle id 46 indSpecies 1 position 0.468533275453515 0.336495125306399 0 orientation 1 0 0 0 velocity 0.280944236301386 -0.0445456321199706 0 angularVelocity 0 0 0 force 0.000765596886337286 0.000917114846851866 0 torque 0 0 0 radius 0.051428239409413 invMass 1755.11840227403
BaseParticle id 47 indSpecies 1 position 0.143509641193735 0.925815651083261 0 orientation 1 0 0 0 velocity 0.108996645725959 -0.42671275118886 0 angularVelocity 0 0 0 force -0.000826994338019941 -0.000202821982234597 0 torque 0 0 0 radius 0.0346362250646239 invMass 5745.39287766353
BaseParticle id 48 indSpecies 1 position 0.730718900848357 0.274253594233128 0 orientation 1 0 0 0 velocity 0.140799249368712 0.379220493932832 0 angularVelocity 0 0 0 force 0.00480483753010945 0.00561953085802926 0 torque 0 0 0 radius 0.0448433180853321 invMass 2647.39150705522
BaseParticle id 49 indSpecies 0 position 0.363796290618026 0.473643101389899 0 orientation 1 0 0 0 velocity 0.285101681262924 -0.113205014394191 0 angularVelocity 0 0 0 force -0.00221901546100398 0.00135582860708614 0 torque 0 0 0 radius 0.0201584115362182 invMass 3642.94389167192
BaseParticle id 50 indSpecies 0 position 0.800768905905882 0.806616849168131 0 orientation 1 0 0 0 velocity 0.0532345554803591 -0.200553565455313 0 angularVelocity 0 0 0 force -0.00035630218945799 -0.00180416624198261 0 torque 0 0 0 radius 0.0175275763184507 invMass 5541.86322866341
BaseParticle id 51 indSpecies 0 position 0.849848194445679 0.283812286838521 0 orientation 1 0 0 0 velocity -0.405350124953786 0.684689834073312 0 angularVelocity 0 0 0 force 0.00459993548579932 -0.0025803975507139 0 torque 0 0 0 radius 0.0170195842450302 invMass 6053.05420390546
BaseParticle id 52 indSpecies 0 position 0.0736229450575747 0.465609554470769 0 orientation 1 0 0 0 velocity 0.269263509635097 -0.026246297976038 0 angularVelocity 0 0 0 force -0.0012329369264437 0.0013209898770409 0 torque 0 0 0 radius 0.0202761032541505 invMass 3579.87548433581
BaseParticle id 53 indSpecies 1 position 0.967106540347176 0.665170082606456 0 orientation 1 0 0 0 velocity 0.158799459124401 0.151575877678912 0 angularVelocity 0 0 0 force -0.00260926588503751 0 0 torque 0 0 0 radius 0.0360184732265598 invMass 5108.99516301233
BaseParticle id 54 indSpecies 1 position 0.239643969828597 0.648804399938658 0 orientation 1 0 0 0 velocity 0.521573743725591 -0.254056683918536 0 angularVelocity 0 0 0 force 0.000223972868995738 -0.00187065435869136 0 torque 0 0 0 radius 0.0303089984596623 invMass 8574.25970704584
BaseParticle id 55 indSpecies 1 position 0.608768293806166 0.647872765078244 0 orientation 1 0 0 0 velocity 0.190768149084122 0.0644925230828859 0 angularVelocity 0 0 0 force 0.000919408721574304 -5.87360246059699e-05 0 torque 0 0 0 radius 0.0438912267201662 invMass 2823.4378553593
BaseParticle id 56 indSpecies 0 position 0.0777138432065913 0.0438143410927496 0 orientation 1 0 0 0 velocity -0.687509428429573 -0.203263878507437 0 angularVelocity 0 0 0 force 0.000688859795260328 -0.00109713166296467 0 torque 0 0 0 radius 0.0207940472841318 invMass 3318.9776060899
BaseParticle id 57 indSpecies 1 position 0.899602953062844 0.764564661288779 0 orientation 1 0 0 0 velocity -0.227803217601019 0.0813167377416503 0 angularVelocity 0 0 0 force 0 0 0 torque 0 0 0 radius 0.029379479671475 invMass 9414.10615105823
BaseParticle id 58 indSpecies 1 position 0.599519371996147 0.438443871032191 0 orientation 1 0 0 0 velocity -0.183252081616736 0.805826424527196 0 angularVelocity 0 0 0 force 0 0 0 torque 0 0 0 radius 0.0355287281763472 invMass 5323.19538217705
BaseParticle id 59 indSpecies 0 position 0.8432706670438 0.421523115077247 0 orientation 1 0 0 0 velocity 0.122979964240298 0.280553489358926 0 angularVelocity 0 0 0 force 0.000722947231575993 -0.000788652144565817 0 torque 0 0 0 radius 0.0190164301888864 invMass 4339.44734945039
BaseParticle id 60 indSpecies 0 position 0.806762724209734 0.836967054595821 0 orientation 1 0 0 0 velocity 0.537154007832646 0.0440310453796537 0 angularVelocity 0 0 0 force 0.00035630218945799 0.00180416624198261 0 torque 0 0 0 radius 0.0183964783303472 invMass 4793.10920584541
BaseParticle id 61 indSpecies 0 position 0.323078925692775 0.756602427837883 0 orientation 1 0 0 0 velocity -0.210096173093176 0.106178696230297 0 angularVelocity 0 0 0 force 0 0 0 torque 0 0 0 radius 0.0222464358003378 invMass 2710.44177141369
BaseParticle id 62 indSpecies 0 position 0.374216090200964 0.503984532732225 0 orientation 1 0 0 0 velocity 0.687773961452986 0.238615091921945 0 angularVelocity 0 0 0 force -0.000125903075321844 0.00449310633581788 0 torque 0 0 0 radius 0.0210980767411198 invMass 3177.55298223169
BaseParticle id 63 indSpecies 0 position 0.435682346178222 0.914182866527702 0 orientation 1 0 0 0 velocity 0.664824355053581 0.0276401424185752 0 angularVelocity 0 0 0 force 0 0 0 torque 0 0 0 radius 0.0220923179256801 invMass 2767.56322042954
BaseParticle id 64 indSpecies 1 position 0.351304950253269 0.418349650842546 0 orientation 1 0 0 0 velocity -0.093044994478296 -0.15514016314336 0 angularVelocity 0 0 0 force -0.00105283814690341 -0.00466043293275531 0 torque 0 0 0 radius 0.0430949632943655 invMass 2982.85295976074
BaseParticle id 65 indSpecies 0 position 0.234357894001569 0.692954483073912 0 orientation 1 0 0 0 velocity -0.307110613256712 -0.236341299616205 0 angularVelocity 0 0 0 force -0.000762959132792476 0.00151402754478505 0 torque 0 0 0 radius 0.0168616742409191 invMass 6224.71281665436
BaseParticle id 66 indSpecies 0 position 0.610169357453484 0.843141710906179 0 orientation 1 0 0 0 velocity 0.0578873667915799 -0.108091591114241 0 angularVelocity 0 0 0 force 0 0 0 torque 0 0 0 radius 0.0211606942292669 invMass 3149.42788624607
BaseParticle id 67 indSpecies 0 position 0.2614971465148 0.710911499431647 0 orientation 1 0 0 0 velocity 0.0450798628832564 0.0618080110148745 0 angularVelocity 0 0 0 force 0.000538986263796737 0.000356626813906311 0 torque 0 0 0 radius 0.0181257600242963 invMass 5011.09603821833
BaseParticle id 68 indSpecies 0 position 0.442690949507553 0.714189699865518 0 orientation 1 0 0 0 velocity -0.1734359067537 0.168302204471173 0 angularVelocity 0 0 0 force -0.00254045213852929 -0.000471081057735476 0 torque 0 0 0 radius 0.0213037025357562 invMass 3086.42789524833
BaseParticle id 69 indSpecies 0 position 0.929419094656685 0.0630825849753202 0 orientation 1 0 0 0 velocity 0.0261423922431531 0.268747703642093 0 angularVelocity 0 0 0 force -0.00245429258184491 0.00113272558276839 0 torque 0 0 0 radius 0.0225530761344795 invMass 2601.38148996718
BaseParticle id 70 indSpecies 1 position 0.116534216780009 0.192307660697612 0 orientation 1 0 0 0 velocity -0.0527884794296388 -0.206636129740388 0 angularVelocity 0 0 0 force 0.00295669440345672 -0.00172456092094402 0 torque 0 0 0 radius 0.0309523937041383 invMass 8050.60777213815
BaseParticle id 71 indSpecies 0 position 0.55904923720064 0.0297153165864525 0 orientation 1 0 0 0 velocity -0.233360977706383 0.290727470309307 0 angularVelocity 0 0 0 force 0 0 0 torque 0 0 0 radius 0.0202660805841292 invMass 3585.18943609241
BaseParticle id 72 indSpecies 0 position 0.183282683128132 0.516148874288661 0 orientation 1 0 0 0 velocity 0.331440358999927 0.361730687981916 0 angularVelocity 0 0 0 force 3.28388425058889e-05 -0.00292573581933018 0 torque 0 0 0 radius 0.0188014557111995 invMass 4490.00656157415
BaseParticle id 73 indSpecies 1 position 0.362773518433943 0.089997401002042 0 orientation 1 0 0 0 velocity 0.0490780695569294 -0.00570253239680237 0 angularVelocity 0 0 0 force 0.00498235122084898 -0.00464696813644828 0 torque 0 0 0 radius 0.038883079365936 invMass 4060.96676570311
BaseParticle id 74 indSpecies 0 position 0.132771416177377 0.102524094543915 0 orientation 1 0 0 0 velocity -0.46403054304817 0.000284915770919609 0 angularVelocity 0 0 0 force -0.00122481480459296 0.00064022816102055 0 torque 0 0 0 radius 0.0167530506842276 invMass 6346.57908975192
BaseParticle id 75 indSpecies 0 position 0.022150783572151 0.624443860792929 0 orientation 1 0 0 0 velocity 0.0576985389864252 0.15460966503644 0 angularVelocity 0 0 0 force -0.000406219369183794 -0.00243980640777512 0 torque 0 0 0 radius 0.0209529378591544 invMass 3244.0431983608
BaseParticle id 76 indSpecies 0 position 0.515630624454116 0.0933322637049888 0 orientation 1 0 0 0 velocity -0.306073461819144 0.152535549374217 0 angularVelocity 0 0 0 force 0 0 0 torque 0 0 0 radius 0.0191979732483644 invMass 4217.50161151829
BaseParticle id 77 indSpecies 1 position 0.0577324656523983 0.904024476595176 0 orientation 1 0 0 0 velocity -0.143242759577245 0.0452359131337888 0 angularVelocity 0 0 0 force 0.00159803352368084 0.00150418506870128 0 torque 0 0 0 radius 0.0538773144503335 invMass 1526.4886200794
BaseParticle id 78 indSpecies 1 position 0.681058936239658 0.432976412143328 0 orientation 1 0 0 0 velocity 0.0501757111966232 0.156588605941096 0 angularVelocity 0 0 0 force 0 0 0 torque 0 0 0 radius 0.0405569047773658 invMass 3578.63150849436
BaseParticle id 79 indSpecies 0 position 0.65393652487841 0.291927132776346 0 orientation 1 0 0 0 velocity 0.175485521931495 0.151304277426452 0 angularVelocity 0 0 0 force 0 0 0 torque 0 0 0 radius 0.0164528593193247 invMass 6700.34632427631
BaseParticle id 80 indSpecies 0 position 0.634906642233477 0.872016956050108 0 orientation 1 0 0 0 velocity 0.453346680248198 0.484786955008798 0 angularVelocity 0 0 0 force 0 0 0 torque 0 0 0 radius 0.0163315159153831 invMass 6850.8097686513
BaseParticle id 81 indSpecies 0 position 0.272926093928163 0.135407149131749 0 orientation 1 0 0 0 velocity 0.0640325059500101 -0.0664480524095506 0 angularVelocity 0 0 0 force 0 0 0 torque 0 0 0 radius 0.0177880743203796 invMass 5301.93742531938
BaseParticle id 82 indSpecies 1 position 0.7969713458391 0.716566181093948 0 orientation 1 0 0 0 velocity -0.115804850604633 0.351400849801179 0 angularVelocity 0 0 0 force -0.00235887681056279 -0.0035060773905706 0 torque 0 0 0 radius 0.0420193873476056 invMass 3217.82367522215
BaseParticle id 83 indSpecies 0 position 0.242099807196113 0.178590689918776 0 orientation 1 0 0 0 velocity 0.02848745445358 -0.392741218167469 0 angularVelocity 0 0 0 force 0 0 0 torque 0 0 0 radius 0.0190970716149574 invMass 4284.70645244022
BaseParticle id 84 indSpecies 0 position 0.4542570815356 0.589037433925063 0 orientation 1 0 0 0 velocity -0.449893462727864 0.441322125596031 0 angularVelocity 0 0 0 force 0 0 0 torque 0 0 0 radius 0.0216547106675294 invMass 2938.76086276057
BaseParticle id 85 indSpecies 1 position 0.239717606287656 0.801149180019545 0 orientation 1 0 0 0 velocity -0.176131502696181 0.963313011456161 0 angularVelocity 0 0 0 force 0 0 0 torque 0 0 0 radius 0.0278167495691993 invMass 11091.5501913348
BaseParticle id 86 indSpecies 0 position 0.637064813958965 0.935181741014412 0 orientation 1 0 0 0 velocity -0.436978095423089 -0.0950173450511275 0 angularVelocity 0 0 0 force 0 0 0 torque 0 0 0 radius 0.0174686089293392 invMass 5598.17456362013
BaseParticle id 87 indSpecies 0 position 0.814532810633734 0.883227245164067 0 orientation 1 0 0 0 velocity -0.348948752186866 0.783500882175281 0 angularVelocity 0 0 0 force 0 0 0 torque 0 0 0 radius 0.0167081274756155 invMass 6397.90907093946
BaseParticle id 88 indSpecies 1 position 0.0725384608779154 0.585179810256479 0 orientation 1 0 0 0 velocity -0.0652190191840018 -0.0982284896791312 0 angularVelocity 0 0 0 force -0.000627037325575789 0.00238027839376415 0 torque 0 0 0 radius 0.0418669864368932 invMass 3253.09154945803
BaseParticle id 89 indSpecies 0 position 0.281323567125787 0.400573324699628 0 orientation 1 0 0 0 velocity 0.0655077415898227 -0.354442357254541 0 angularVelocity 0 0 0 force 0 0 0 torque 0 0 0 radius 0.0171174702335918 invMass 5949.80400564081
BaseParticle id 90 indSpecies 1 position 0.174079375457534 0.838789160147124 0 orientation 1 0 0 0 velocity -0.351985164372272 -0.486019381906547 0 angularVelocity 0 0 0 force 0.00329049332564314 0.000401893596167343 0 torque 0 0 0 radius 0.0439015336447381 invMass 2821.44971551622
BaseParticle id 91 indSpecies 0 position 0.431067037807836 0.505435235343376 0 orientation 1 0 0 0 velocity -0.259915805586159 0.203009384341857 0 angularVelocity 0 0 0 force 0.00273666773221077 0.00360584125937166 0 torque 0 0 0 radius 0.019382455546984 invMass 4098.21759820808
BaseParticle id 92 indSpecies 1 position 0.884786557926258 0.693995984852986 0 orientation 1 0 0 0 velocity 0.384801508115968 -0.0502786037969454 0 angularVelocity 0 0 0 force -0.000877659845174195 -0.000607327271524092 0 torque 0 0 0 radius 0.0377612656524765 invMass 4433.75574345689
BaseParticle id 93 indSpecies 0 position 0.241558531678559 0.0798825643507141 0 orientation 1 0 0 0 velocity -0.703485837418819 -0.012142575117327 0 angularVelocity 0 0 0 force 0 0 0 torque 0 0 0 radius 0.0162167337013253 invMass 6997.31215213118
BaseParticle id 94 indSpecies 0 position 0.0652109814027933 0.395026585514777 0 orientation 1 0 0 0 velocity -0.174189647018727 0.317916869417842 0 angularVelocity 0 0 0 force 0 0 0 torque 0 0 0 radius 0.0168430442355172 invMass 6245.39104125856
BaseParticle id 95 indSpecies 1 position 0.755050878059575 0.397617934082464 0 orientation 1 0 0 0 velocity -0.14245066905454 -0.0054250065166194 0 angularVelocity 0 0 0 force 0 0 0 torque 0 0 0 radius 0.0342014578187825 invMass 5967.29539053273
BaseParticle id 96 indSpecies 1 position 0.704328267336926 0.907921996211791 0 orientation 1 0 0 0 velocity -0.102777063671105 0.127827966228854 0 angularVelocity 0 0 0 force 0 0 0 torque 0 0 0 radius 0.0277324481571723 invMass 11193.0066378525
BaseParticle id 97 indSpecies 0 position 0.0880076005256207 0.526457853250584 0 orientation 1 0 0 0 velocity 0.293267885518489 0.195603421352664 0 angularVelocity 0 0 0 force 0.000627037325575789 -0.00238027839376415 0 torque 0 0 0 radius 0.0217169582641526 invMass 2913.56300181652
BaseParticle id 98 indSpecies 1 position 0.338736674965923 0.630276979439703 0 orientation 1 0 0 0 velocity 0.12229202771218 0.128502486757029 0 angularVelocity 0 0 0 force 0.00671914929303454 0.0049363333401996 0 torque 0 0 0 radius 0.0387387641233031 invMass 4106.52155314408
BaseParticle id 99 indSpecies 0 position 0.578509553966325 0.0989418307447813 0 orientation 1 0 0 0 velocity -0.00039348523872146 0.203125854746095 0 angularVelocity 0 0 0 force 0.000369739187444626 0.0011791511681272 0 torque 0 0 0 radius 0.0176991312264473 invMass 5382.27093835584
BaseParticle id 100 indSpecies 1 position 0.692719986466802 0.720433028888398 0 orientation 1 0 0 0 velocity -0.058782527785073 0.236783076929693 0 angularVelocity 0 0 0 force 0 0 0 torque 0 0 0 radius 0.0390481656351609 invMass 4009.67783796501
BaseParticle id 101 indSpecies 1 position 0.981164206569765 0.969012030806523 0 orientation 1 0 0 0 velocity 0.847918368409402 -0.71192618551303 0 angularVelocity 0 0 0 force -0.00734405206535807 0 0 torque 0 0 0 radius 0.026768401530787 invMass 12446.4092301029