MercuryDPM 0.14 name PSDManualInsertionSelfTest revision 6570 repository https://svn.mercurydpm.org/SourceCode/Branches/Timo
dataFile    fileType ONE_FILE saveCount 10 counter 14 lastSavedTimeStep 121
fStatFile   fileType ONE_FILE saveCount 20 counter 8 lastSavedTimeStep 121
eneFile     fileType ONE_FILE saveCount 20 counter 8 lastSavedTimeStep 121
restartFile fileType ONE_FILE saveCount 20 counter 8 lastSavedTimeStep 121
statFile    fileType ONE_FILE saveCount 20 counter 0
interactionFile fileType NO_FILE saveCount 0 counter 0
xMin 0 xMax 0.1 yMin 0 yMax 0.1 zMin 0 zMax 0.1
timeStep 0.0001 time 0.0121 ntimeSteps 121 timeMax 0.012
systemDimensions 3 particleDimensions 3 gravity 0 0 0 writeVTK 0 NO_FILE NO_FILE 0 0 0 0 random  0 1103515245 12345 1073741824 607 273 784607267
Species 1
LinearViscoelasticSpecies id 0 density 2000 stiffness 10000 dissipation 0
Walls 0
Boundaries 1
CubeInsertionBoundary id 0 maxFailed 1 volumeFlowRate 0 massInserted 0.0632169377715662 volumeInserted 3.16084688857832e-05 numberOfParticlesInserted 5739 isActivated 1 psdCount 1 psd 47 0.000387645 0 0.000405195 0.00641963 0.000423541 0.0157881 0.000442717 0.0289129 0.000462761 0.0475877 0.000483713 0.0702285 0.000505613 0.096661 0.000528505 0.12752 0.000552434 0.162984 0.000577445 0.199952 0.00060359 0.236205 0.000630917 0.270216 0.000659483 0.300988 0.000689341 0.328802 0.000720551 0.354678 0.000753175 0.379335 0.000787275 0.404133 0.000822919 0.430189 0.000860177 0.458372 0.000899122 0.489708 0.000939831 0.524177 0.000982382 0.561866 0.00102686 0.602098 0.00107335 0.643887 0.00112195 0.686123 0.00117275 0.727694 0.00122584 0.767495 0.00128134 0.804712 0.00133936 0.838663 0.0014 0.868961 0.00146338 0.895445 0.00152964 0.918157 0.00159889 0.937242 0.00167128 0.952947 0.00174695 0.965604 0.00182605 0.975541 0.00190872 0.983136 0.00199514 0.988764 0.00208547 0.992798 0.00217989 0.995601 0.00227859 0.997454 0.00238175 0.998635 0.00248959 0.999345 0.0026023 0.999741 0.00272012 0.999939 0.00284328 0.999995 0.00297201 1 initialVolume 4.01703e-05 samplingInterval 0 variableCumulativeVolumeFlowRate 0 particleToCopy 1 BaseParticle id 0 indSpecies 0 position 0 0 0 orientation 1 0 0 0 velocity 0 0 0 angularVelocity 0 0 0 force 0 0 0 torque 0 0 0 radius 1 invMass 1 posMin 0 0 0 posMax 0.1 0.1 0.1 velMin 0 0 0 velMax 0 0 0
Particles 5739
BaseParticle id 0 indSpecies 0 position 0.0462818009347824 0.0451551026244135 0.084762122589385 orientation 1 0 0 0 velocity 0 0 0 angularVelocity 0 0 0 force 0 0 0 torque 0 0 0 radius 0.000992611965961697 invMass 122051.431102804
BaseParticle id 1 indSpecies 0 position 0.0413787151301478 0.00993150145753146 0.0771077505526061 orientation 1 0 0 0 velocity 0 0 0 angularVelocity 0 0 0 force 0 0 0 torque 0 0 0 radius 0.00138878637495148 invMass 44563.0650252216
BaseParticle id 2 indSpecies 0 position 0.0595721126910559 0.0926644036614668 0.0072714161991408 orientation 1 0 0 0 velocity 0 0 0 angularVelocity 0 0 0 force 0 0 0 torque 0 0 0 radius 0.00136140675700761 invMass 47306.1592738614
BaseParticle id 3 indSpecies 0 position 0.0193444608530547 0.0803075776618835 0.0214465732486485 orientation 1 0 0 0 velocity 0 0 0 angularVelocity 0 0 0 force 0 0 0 torque 0 0 0 radius 0.00138281005231415 invMass 45143.3528080637
BaseParticle id 4 indSpecies 0 position 0.029164158246327 0.0651623650778436 0.0306274980952707 orientation 1 0 0 0 velocity 0 0 0 angularVelocity 0 0 0 force 0 0 0 torque 0 0 0 radius 0.00104946954748608 invMass 103269.451792591
BaseParticle id 5 indSpecies 0 position 0.020833188648491 0.0969839190161005 0.0537878006195763 orientation 1 0 0 0 velocity 0 0 0 angularVelocity 0 0 0 force 0 0 0 torque 0 0 0 radius 0.000780335216326111 invMass 251210.492046167
BaseParticle id 6 indSpecies 0 position 0.0965598651240022 0.0187199103471638 0.0751426060915528 orientation 1 0 0 0 velocity 0 0 0 angularVelocity 0 0 0 force 0 0 0 torque 0 0 0 radius 0.000634122825795049 invMass 468124.354531465
BaseParticle id 7 indSpecies 0 position 0.0128699160061126 0.0306166582455703 0.0591826113321049 orientation 1 0 0 0 velocity 0 0 0 angularVelocity 0 0 0 force 0 0 0 torque 0 0 0 radius 0.000475268387559113 invMass 1111897.13312031
BaseParticle id 8 indSpecies 0 position 0.0772737262050866 0.0846877715692969 0.0788350858922721 orientation 1 0 0 0 velocity 0 0 0 angularVelocity 0 0 0 force 0 0 0 torque 0 0 0 radius 0.000657217646445202 invMass 420488.13676593
BaseParticle id 9 indSpecies 0 position 0.0890366296386005 0.0611222965073564 0.0680974906607554 orientation 1 0 0 0 velocity 0 0 0 angularVelocity 0 0 0 force 0 0 0 torque 0 0 0 radius 0.000875144139491471 invMass 178091.269014092
BaseParticle id 10 indSpecies 0 position 0.0895757810309755 0.0425251628807512 0.07872364187732 orientation 1 0 0 0 velocity 0 0 0 angularVelocity 0 0 0 force 0 0 0 torque 0 0 0 radius 0.00132661695030547 invMass 51126.3476682771
BaseParticle id 11 indSpecies 0 position 0.0440465642660423 0.00549294957379536 0.00311985714070513 orientation 1 0 0 0 velocity 0 0 0 angularVelocity 0 0 0 force 0 0 0 torque 0 0 0 radius 0.000872270665909394 invMass 179857.102350702
BaseParticle id 12 indSpecies 0 position 0.0816598897039333 0.0772353886838673 0.0455273494631729 orientation 1 0 0 0 velocity 0 0 0 angularVelocity 0 0 0 force 0 0 0 torque 0 0 0 radius 0.000768780042690592 invMass 262709.085777525
BaseParticle id 13 indSpecies 0 position 0.0810699480762054 0.0967712630547851 0.058317498808431 orientation 1 0 0 0 velocity 0 0 0 angularVelocity 0 0 0 force 0 0 0 torque 0 0 0 radius 0.00128575627875598 invMass 56157.1984382492
BaseParticle id 14 indSpecies 0 position 0.0256943308509008 0.0332247916299619 0.00975970969557789 orientation 1 0 0 0 velocity 0 0 0 angularVelocity 0 0 0 force 0 0 0 torque 0 0 0 radius 0.000710185263989338 invMass 333247.135537532
BaseParticle id 15 indSpecies 0 position 0.0690963677418452 0.048267025548716 0.076193224195211 orientation 1 0 0 0 velocity 0 0 0 angularVelocity 0 0 0 force 0 0 0 torque 0 0 0 radius 0.00111701949044264 invMass 85644.4336836654
BaseParticle id 16 indSpecies 0 position 0.0401805055884826 0.0099951959122017 0.0789237790937314 orientation 1 0 0 0 velocity 0 0 0 angularVelocity 0 0 0 force 0 0 0 torque 0 0 0 radius 0.000735228905865983 invMass 300340.345084429
BaseParticle id 17 indSpecies 0 position 0.0324626619625253 0.00506626339157461 0.09576988434813 orientation 1 0 0 0 velocity 0 0 0 angularVelocity 0 0 0 force 0 0 0 torque 0 0 0 radius 0.0017217915065162 invMass 23385.1258580203
BaseParticle id 18 indSpecies 0 position 0.0262642771692348 0.0849237541808526 0.0884841543729565 orientation 1 0 0 0 velocity 0 0 0 angularVelocity 0 0 0 force 0 0 0 torque 0 0 0 radius 0.000543776553651855 invMass 742369.227457719
BaseParticle id 19 indSpecies 0 position 0.0757689981947011 0.0841023461109937 0.0601846719531485 orientation 1 0 0 0 velocity 0 0 0 angularVelocity 0 0 0 force 0 0 0 torque 0 0 0 radius 0.0014606847196241 invMass 38301.1608316365
BaseParticle id 20 indSpecies 0 position 0.00911323026836548 0.0444778516474386 0.00351034411833588 orientation 1 0 0 0 velocity 0 0 0 angularVelocity 0 0 0 force 0 0 0 torque 0 0 0 radius 0.000880186348117979 invMass 175048.143924673
BaseParticle id 21 indSpecies 0 position 0.0747495385122024 0.084527385714904 0.0432653544999051 orientation 1 0 0 0 velocity 0 0 0 angularVelocity 0 0 0 force 0 0 0 torque 0 0 0 radius 0.00123150862525062 invMass 63910.0299881304
BaseParticle id 22 indSpecies 0 position 0.0121918775959016 0.00755647597130715 0.0433548083125103 orientation 1 0 0 0 velocity 0 0 0 angularVelocity 0 0 0 force 0 0 0 torque 0 0 0 radius 0.000903491251659292 invMass 161848.820912404
BaseParticle id 23 indSpecies 0 position 0.0472578531622348 0.0618409596738955 0.0319048466795079 orientation 1 0 0 0 velocity 0 0 0 angularVelocity 0 0 0 force 0 0 0 torque 0 0 0 radius 0.00108168489097494 invMass 94314.6385109543
BaseParticle id 24 indSpecies 0 position 0.0102355983944278 0.0832432083010271 0.0884476968194845 orientation 1 0 0 0 velocity 0 0 0 angularVelocity 0 0 0 force 0 0 0 torque 0 0 0 radius 0.00113057900815312 invMass 82599.7328162952
BaseParticle id 25 indSpecies 0 position 0.00837098461727521 0.0522019398843852 0.0346442795035948 orientation 1 0 0 0 velocity 0 0 0 angularVelocity 0 0 0 force 0 0 0 torque 0 0 0 radius 0.00100457922018806 invMass 117741.299167841
BaseParticle id 26 indSpecies 0 position 0.0559428380281266 0.0700997407826597 0.0962590691668363 orientation 1 0 0 0 velocity 0 0 0 angularVelocity 0 0 0 force 0 0 0 torque 0 0 0 radius 0.000967483416622982 invMass 131810.74240821
BaseParticle id 27 indSpecies 0 position 0.0597098215858361 0.057567957176298 0.0267184714537873 orientation 1 0 0 0 velocity 0 0 0 angularVelocity 0 0 0 force 0 0 0 torque 0 0 0 radius 0.00118459408053734 invMass 71807.9817721003
BaseParticle id 28 indSpecies 0 position 0.00587385044817452 0.0252225785281299 0.052698124989217 orientation 1 0 0 0 velocity 0 0 0 angularVelocity 0 0 0 force 0 0 0 torque 0 0 0 radius 0.00052164562940796 invMass 840919.989094965
BaseParticle id 29 indSpecies 0 position 0.0154171871809129 0.007775785487354 0.0379114581850251 orientation 1 0 0 0 velocity 0 0 0 angularVelocity 0 0 0 force 0 0 0 torque 0 0 0 radius 0.000880195815196391 invMass 175042.495715542
BaseParticle id 30 indSpecies 0 position 0.0327630155414687 0.0586293312174926 0.0656877283326465 orientation 1 0 0 0 velocity 0 0 0 angularVelocity 0 0 0 force 0 0 0 torque 0 0 0 radius 0.000561648488235493 invMass 673732.677799263
BaseParticle id 31 indSpecies 0 position 0.0758287987896904 0.0523946741107901 0.0919134873040826 orientation 1 0 0 0 velocity 0 0 0 angularVelocity 0 0 0 force 0 0 0 torque 0 0 0 radius 0.00121353599720074 invMass 66791.8395759643
BaseParticle id 32 indSpecies 0 position 0.0544205111875939 0.0921347505486247 0.019371255562295 orientation 1 0 0 0 velocity 0 0 0 angularVelocity 0 0 0 force 0 0 0 torque 0 0 0 radius 0.000591619568893068 invMass 576439.593316448
BaseParticle id 33 indSpecies 0 position 0.0747160042871572 0.0531534103181647 0.0644646338518107 orientation 1 0 0 0 velocity 0 0 0 angularVelocity 0 0 0 force 0 0 0 torque 0 0 0 radius 0.000547239730001238 invMass 728364.105483054
BaseParticle id 34 indSpecies 0 position 0.0836178721081299 0.0117204199435931 0.000377548951303996 orientation 1 0 0 0 velocity 0 0 0 angularVelocity 0 0 0 force 0 0 0 torque 0 0 0 radius 0.000664486523936543 invMass 406839.265850828
BaseParticle id 35 indSpecies 0 position 0.0970729528953573 0.0969606445199245 0.09241394354737 orientation 1 0 0 0 velocity 0 0 0 angularVelocity 0 0 0 force 0 0 0 torque 0 0 0 radius 0.00053748521421698 invMass 768744.160886925
BaseParticle id 36 indSpecies 0 position 0.0588207174476043 0.0884957535299512 0.0317885071674469 orientation 1 0 0 0 velocity 0 0 0 angularVelocity 0 0 0 force 0 0 0 torque 0 0 0 radius 0.000587457608526557 invMass 588778.301062747
BaseParticle id 37 indSpecies 0 position 0.0417646053789513 0.0800067577697274 0.0869167595292286 orientation 1 0 0 0 velocity 0 0 0 angularVelocity 0 0 0 force 0 0 0 torque 0 0 0 radius 0.000777437486632437 invMass 254029.972935581
BaseParticle id 38 indSpecies 0 position 0.00235067689572397 0.0956917095038186 0.0559225935899442 orientation 1 0 0 0 velocity 0 0 0 angularVelocity 0 0 0 force 0 0 0 torque 0 0 0 radius 0.00150877045842509 invMass 34754.5667469665
BaseParticle id 39 indSpecies 0 position 0.010402804230896 0.0730118187395746 0.022109877856346 orientation 1 0 0 0 velocity 0 0 0 angularVelocity 0 0 0 force 0 0 0 torque 0 0 0 radius 0.000834052919704145 invMass 205731.396478622
BaseParticle id 40 indSpecies 0 position 0.0418329746072805 0.0686011585699383 0.0798690657318858 orientation 1 0 0 0 velocity 0 0 0 angularVelocity 0 0 0 force 0 0 0 torque 0 0 0 radius 0.00106115099248367 invMass 99896.4008174207
BaseParticle id 41 indSpecies 0 position 0.0935104752019882 0.0486952222430192 0.0594294081819901 orientation 1 0 0 0 velocity 0 0 0 angularVelocity 0 0 0 force 0 0 0 torque 0 0 0 radius 0.00150949949723167 invMass 34704.235111746
BaseParticle id 42 indSpecies 0 position 0.0439465037137768 0.0605432332860834 0.077782873830029 orientation 1 0 0 0 velocity 0 0 0 angularVelocity 0 0 0 force 0 0 0 torque 0 0 0 radius 0.000526561897528315 invMass 817585.357861263
BaseParticle id 43 indSpecies 0 position 0.0893831915320985 0.0970635949661363 0.0793951490154535 orientation 1 0 0 0 velocity 0 0 0 angularVelocity 0 0 0 force 0 0 0 torque 0 0 0 radius 0.00179257702753883 invMass 20722.7751872897
BaseParticle id 44 indSpecies 0 position 0.0276064363982469 0.0539636656139384 0.0392996674968864 orientation 1 0 0 0 velocity 0 0 0 angularVelocity 0 0 0 force 0 0 0 torque 0 0 0 radius 0.00111130274712612 invMass 86972.9560666357
BaseParticle id 45 indSpecies 0 position 0.0961445872707809 0.0791264746532529 0.0470675132730347 orientation 1 0 0 0 velocity 0 0 0 angularVelocity 0 0 0 force 0 0 0 torque 0 0 0 radius 0.000572082880366925 invMass 637535.745719852
BaseParticle id 46 indSpecies 0 position 0.029246981694133 0.00254601062969675 0.0519682149850128 orientation 1 0 0 0 velocity 0 0 0 angularVelocity 0 0 0 force 0 0 0 torque 0 0 0 radius 0.000748578279790745 invMass 284557.298854593
BaseParticle id 47 indSpecies 0 position 0.0242646593374529 0.0213247085722865 0.0293926140019739 orientation 1 0 0 0 velocity 0 0 0 angularVelocity 0 0 0 force 0 0 0 torque 0 0 0 radius 0.00119517110589901 invMass 69918.3449303361
BaseParticle id 48 indSpecies 0 position 0.0388066255126087 0.00282860956822653 0.0863741846882047 orientation 1 0 0 0 velocity 0 0 0 angularVelocity 0 0 0 force 0 0 0 torque 0 0 0 radius 0.00106697244422006 invMass 98270.1875197777
BaseParticle id 49 indSpecies 0 position 0.0918470906169647 0.0991142840132916 0.00779305425678096 orientation 1 0 0 0 velocity 0 0 0 angularVelocity 0 0 0 force 0 0 0 torque 0 0 0 radius 0.00066351370371624 invMass 408631.370639308
BaseParticle id 50 indSpecies 0 position 0.0912038071162963 0.0513815605534412 0.0381956555524882 orientation 1 0 0 0 velocity 0 0 0 angularVelocity 0 0 0 force 0 0 0 torque 0 0 0 radius 0.000452551034460953 invMass 1287889.81637049
BaseParticle id 51 indSpecies 0 position 0.00720295011326395 0.0691402485881557 0.0339532971997249 orientation 1 0 0 0 velocity 0 0 0 angularVelocity 0 0 0 force 0 0 0 torque 0 0 0 radius 0.00103755434286772 invMass 106868.284357861
BaseParticle id 52 indSpecies 0 position 0.0551819820374418 0.0871216303788855 0.0846690296338228 orientation 1 0 0 0 velocity 0 0 0 angularVelocity 0 0 0 force 0 0 0 torque 0 0 0 radius 0.00171106537233078 invMass 23827.6706169762
BaseParticle id 53 indSpecies 0 position 0.0429588166596752 0.0380378273892795 0.0498445376289594 orientation 1 0 0 0 velocity 0 0 0 angularVelocity 0 0 0 force 0 0 0 torque 0 0 0 radius 0.00111170515432993 invMass 86878.5446745768
BaseParticle id 54 indSpecies 0 position 0.00326430303671927 0.071450651184236 0.0231899534136151 orientation 1 0 0 0 velocity 0 0 0 angularVelocity 0 0 0 force 0 0 0 torque 0 0 0 radius 0.00103668123126415 invMass 107138.531018067
BaseParticle id 55 indSpecies 0 position 0.0329004984042603 0.0937884705199036 0.0231121225067302 orientation 1 0 0 0 velocity 0 0 0 angularVelocity 0 0 0 force 0 0 0 torque 0 0 0 radius 0.00209562391792805 invMass 12970.0411943708
BaseParticle id 56 indSpecies 0 position 0.0813237801368127 0.0483560759123824 0.010164483906548 orientation 1 0 0 0 velocity 0 0 0 angularVelocity 0 0 0 force 0 0 0 torque 0 0 0 radius 0.00100476656356358 invMass 117675.451216722
BaseParticle id 57 indSpecies 0 position 0.0965816446611829 0.0728241943076028 0.000901692732328829 orientation 1 0 0 0 velocity 0 0 0 angularVelocity 0 0 0 force 0 0 0 torque 0 0 0 radius 0.000808916954360166 invMass 225511.960700476
BaseParticle id 58 indSpecies 0 position 0.0654154038378825 0.0629404888833496 0.077991357466214 orientation 1 0 0 0 velocity 0 0 0 angularVelocity 0 0 0 force 0 0 0 torque 0 0 0 radius 0.000878832339504751 invMass 175858.476137658
BaseParticle id 59 indSpecies 0 position 0.0424296728871486 0.0177141948438117 0.0840283417291675 orientation 1 0 0 0 velocity 0 0 0 angularVelocity 0 0 0 force 0 0 0 torque 0 0 0 radius 0.00104952916651189 invMass 103251.853974712
BaseParticle id 60 indSpecies 0 position 0.0220323394778815 0.0250499933724757 0.00219684745911803 orientation 1 0 0 0 velocity 0 0 0 angularVelocity 0 0 0 force 0 0 0 torque 0 0 0 radius 0.000709447764429942 invMass 334287.487782983
BaseParticle id 61 indSpecies 0 position 0.0426595558946398 0.0212833483505218 0.0940962143297343 orientation 1 0 0 0 velocity 0 0 0 angularVelocity 0 0 0 force 0 0 0 torque 0 0 0 radius 0.00108643397899876 invMass 93083.2150024011
BaseParticle id 62 indSpecies 0 position 0.000838929600232352 0.0097495225167372 0.044259318388757 orientation 1 0 0 0 velocity 0 0 0 angularVelocity 0 0 0 force 0 0 0 torque 0 0 0 radius 0.000671935736616187 invMass 393457.815702915
BaseParticle id 63 indSpecies 0 position 0.0377591434514531 0.0784028301216636 0.0737540905608292 orientation 1 0 0 0 velocity 0 0 0 angularVelocity 0 0 0 force 0 0 0 torque 0 0 0 radius 0.00126515917571148 invMass 58944.8526247521
BaseParticle id 64 indSpecies 0 position 0.0111988612346362 0.0133462469900528 0.0335512118101574 orientation 1 0 0 0 velocity 0 0 0 angularVelocity 0 0 0 force 0 0 0 torque 0 0 0 radius 0.00161445096247658 invMass 28366.569667873
BaseParticle id 65 indSpecies 0 position 0.0396378131214177 0.00145871201394245 0.0497256297155045 orientation 1 0 0 0 velocity 0 0 0 angularVelocity 0 0 0 force 0 0 0 torque 0 0 0 radius 0.00110050152970341 invMass 89559.0428252085
BaseParticle id 66 indSpecies 0 position 0.0904574840418459 0.0574903735355564 0.0990918241449708 orientation 1 0 0 0 velocity 0 0 0 angularVelocity 0 0 0 force 0 0 0 torque 0 0 0 radius 0.000409535424560321 invMass 1737828.73201309
BaseParticle id 67 indSpecies 0 position 0.0857333733833084 0.024645022093649 0.0245810673343194 orientation 1 0 0 0 velocity 0 0 0 angularVelocity 0 0 0 force 0 0 0 torque 0 0 0 radius 0.00105026787655164 invMass 103034.139384774
BaseParticle id 68 indSpecies 0 position 0.0879528883956811 0.0795857600126548 0.0434448583578273 orientation 1 0 0 0 velocity 0 0 0 angularVelocity 0 0 0 force 0 0 0 torque 0 0 0 radius 0.0010876913136053 invMass 92760.784802861
BaseParticle id 69 indSpecies 0 position 0.0764502656865397 0.0507433782790384 0.0714202909996544 orientation 1 0 0 0 velocity 0 0 0 angularVelocity 0 0 0 force 0 0 0 torque 0 0 0 radius 0.00177557470376408 invMass 21323.7974077377
BaseParticle id 70 indSpecies 0 position 0.0891209776614597 0.0903208902195833 0.0921103616318569 orientation 1 0 0 0 velocity 0 0 0 angularVelocity 0 0 0 force 0 0 0 torque 0 0 0 radius 0.00144128538168862 invMass 39868.6426054002
BaseParticle id 71 indSpecies 0 position 0.0302552368210114 0.00694192675227119 0.0107153382983847 orientation 1 0 0 0 velocity 0 0 0 angularVelocity 0 0 0 force 0 0 0 torque 0 0 0 radius 0.000916309122868135 invMass 155151.280272273
BaseParticle id 72 indSpecies 0 position 0.0138253928033399 0.0435838821869494 0.0771512816872901 orientation 1 0 0 0 velocity 0 0 0 angularVelocity 0 0 0 force 0 0 0 torque 0 0 0 radius 0.000476192207429327 invMass 1105438.38913601
BaseParticle id 73 indSpecies 0 position 0.0395847791437201 0.0985119469477684 0.0755134920817674 orientation 1 0 0 0 velocity 0 0 0 angularVelocity 0 0 0 force 0 0 0 torque 0 0 0 radius 0.000832454321973402 invMass 206918.898440632
BaseParticle id 74 indSpecies 0 position 0.0671837767891737 0.0753533275096181 0.0485605016829814 orientation 1 0 0 0 velocity 0 0 0 angularVelocity 0 0 0 force 0 0 0 torque 0 0 0 radius 0.000436581211082248 invMass 1434452.82861276
BaseParticle id 75 indSpecies 0 position 0.031421760347279 0.0058011082878326 0.0450302669359089 orientation 1 0 0 0 velocity 0 0 0 angularVelocity 0 0 0 force 0 0 0 torque 0 0 0 radius 0.00084494498955143 invMass 197877.352059111
BaseParticle id 76 indSpecies 0 position 0.0246774849252054 0.0513598813197018 0.076014838203774 orientation 1 0 0 0 velocity 0 0 0 angularVelocity 0 0 0 force 0 0 0 torque 0 0 0 radius 0.00186468306200301 invMass 18410.5311130983
BaseParticle id 77 indSpecies 0 position 0.0539767896253832 0.086017984537391 0.0723647109490217 orientation 1 0 0 0 velocity 0 0 0 angularVelocity 0 0 0 force 0 0 0 torque 0 0 0 radius 0.000746868422357226 invMass 286516.146542522
BaseParticle id 78 indSpecies 0 position 0.0946795410526176 0.0412491670425524 0.0229513503397337 orientation 1 0 0 0 velocity 0 0 0 angularVelocity 0 0 0 force 0 0 0 torque 0 0 0 radius 0.000871131789651705 invMass 180563.434828608
BaseParticle id 79 indSpecies 0 position 0.0716686687696086 0.0525518482992874 0.0107503406603352 orientation 1 0 0 0 velocity 0 0 0 angularVelocity 0 0 0 force 0 0 0 torque 0 0 0 radius 0.00116964832182822 invMass 74595.9911733656
BaseParticle id 80 indSpecies 0 position 0.048650363787403 0.0669719776446261 0.0930234140781468 orientation 1 0 0 0 velocity 0 0 0 angularVelocity 0 0 0 force 0 0 0 torque 0 0 0 radius 0.00143582321354011 invMass 40325.3813961409
BaseParticle id 81 indSpecies 0 position 0.0508680276098959 0.00565702085787705 0.0693145474704779 orientation 1 0 0 0 velocity 0 0 0 angularVelocity 0 0 0 force 0 0 0 torque 0 0 0 radius 0.00159860526052573 invMass 29218.4841951753
BaseParticle id 82 indSpecies 0 position 0.009146822142278 0.0922581247126142 0.0930748260644499 orientation 1 0 0 0 velocity 0 0 0 angularVelocity 0 0 0 force 0 0 0 torque 0 0 0 radius 0.000591423568751986 invMass 577012.886440821
BaseParticle id 83 indSpecies 0 position 0.0147158287328521 0.0674126155046629 0.086778180965429 orientation 1 0 0 0 velocity 0 0 0 angularVelocity 0 0 0 force 0 0 0 torque 0 0 0 radius 0.0010231864459823 invMass 111433.830534595
BaseParticle id 84 indSpecies 0 position 0.0795493101891602 0.010277583347375 0.0216992980598479 orientation 1 0 0 0 velocity 0 0 0 angularVelocity 0 0 0 force 0 0 0 torque 0 0 0 radius 0.00134708247514584 invMass 48831.3618433699
BaseParticle id 85 indSpecies 0 position 0.0942253700511294 0.0168032741948932 0.0627992531631149 orientation 1 0 0 0 velocity 0 0 0 angularVelocity 0 0 0 force 0 0 0 torque 0 0 0 radius 0.000917083184217289 invMass 154758.746837813
BaseParticle id 86 indSpecies 0 position 0.022980958853866 0.0691273919594219 0.0481341577618065 orientation 1 0 0 0 velocity 0 0 0 angularVelocity 0 0 0 force 0 0 0 torque 0 0 0 radius 0.00146756367862765 invMass 37765.0906076267
BaseParticle id 87 indSpecies 0 position 0.0235687481019937 0.0658886193615491 0.00796576812121479 orientation 1 0 0 0 velocity 0 0 0 angularVelocity 0 0 0 force 0 0 0 torque 0 0 0 radius 0.00158800226709504 invMass 29807.6707684301
BaseParticle id 88 indSpecies 0 position 0.0689548411695707 0.0208204010307599 0.0714064499629602 orientation 1 0 0 0 velocity 0 0 0 angularVelocity 0 0 0 force 0 0 0 torque 0 0 0 radius 0.000494938288553418 invMass 984528.37701183
BaseParticle id 89 indSpecies 0 position 0.0984752233154371 0.090121591100356 0.0810711832893349 orientation 1 0 0 0 velocity 0 0 0 angularVelocity 0 0 0 force 0 0 0 torque 0 0 0 radius 0.000652518283691162 invMass 429638.646196569
BaseParticle id 90 indSpecies 0 position 0.0286495233619124 0.0268494474451529 0.011470755085842 orientation 1 0 0 0 velocity 0 0 0 angularVelocity 0 0 0 force 0 0 0 torque 0 0 0 radius 0.000417789418405184 invMass 1636850.76823396
BaseParticle id 91 indSpecies 0 position 0.0858094801327126 0.0857132481544155 0.0305070799491302 orientation 1 0 0 0 velocity 0 0 0 angularVelocity 0 0 0 force 0 0 0 torque 0 0 0 radius 0.00139263649847629 invMass 44194.4848413794
BaseParticle id 92 indSpecies 0 position 0.0967466172792515 0.0720422967597448 0.0332382033269496 orientation 1 0 0 0 velocity 0 0 0 angularVelocity 0 0 0 force 0 0 0 torque 0 0 0 radius 0.001118167564725 invMass 85380.8991651331
BaseParticle id 93 indSpecies 0 position 0.0784069091282721 0.0197375197711051 0.0917397117319147 orientation 1 0 0 0 velocity 0 0 0 angularVelocity 0 0 0 force 0 0 0 torque 0 0 0 radius 0.00139454980070957 invMass 44012.8317056908
BaseParticle id 94 indSpecies 0 position 0.0920831097363652 0.00127482032284623 0.0705311519368262 orientation 1 0 0 0 velocity 0 0 0 angularVelocity 0 0 0 force 0 0 0 torque 0 0 0 radius 0.000607997733671681 invMass 531099.036746107
BaseParticle id 95 indSpecies 0 position 0.0601588660290848 0.0523861444067339 0.0389925614567543 orientation 1 0 0 0 velocity 0 0 0 angularVelocity 0 0 0 force 0 0 0 torque 0 0 0 radius 0.000761855041428149 invMass 269938.206323677
BaseParticle id 96 indSpecies 0 position 0.0646791353219383 0.0359738514423614 0.0333067357229937 orientation 1 0 0 0 velocity 0 0 0 angularVelocity 0 0 0 force 0 0 0 torque 0 0 0 radius 0.00095004228678478 invMass 139204.279232488
BaseParticle id 97 indSpecies 0 position 0.0441390457152025 0.00016523376091826 0.0826561608513294 orientation 1 0 0 0 velocity 0 0 0 angularVelocity 0 0 0 force 0 0 0 torque 0 0 0 radius 0.000576121340732256 invMass 624222.626861309
BaseParticle id 98 indSpecies 0 position 0.0455495300278538 0.0406859393783976 0.00857315658724573 orientation 1 0 0 0 velocity 0 0 0 angularVelocity 0 0 0 force 0 0 0 torque 0 0 0 radius 0.000733156171686608 invMass 302894.864903764
BaseParticle id 99 indSpecies 0 position 0.0675596889410543 0.0716687406677113 0.093205480563263 orientation 1 0 0 0 velocity 0 0 0 angularVelocity 0 0 0 force 0 0 0 torque 0 0 0 radius 0.000539666718440099 invMass 759459.270774367
BaseParticle id 100 indSpecies 0 position 0.000977054703070745 0.0665931275425543 0.0266563164753315 orientation 1 0 0 0 velocity 0 0 0 angularVelocity 0 0 0 force 0 0 0 torque 0 0 0 radius 0.00101828942312312 invMass 113049.252896602
BaseParticle id 101 indSpecies 0 position 0.0105986392958102 0.0583995338916783 0.0159315271154684 orientation 1 0 0 0 velocity 0 0 0 angularVelocity 0 0 0 force 0 0 0 torque 0 0 0 radius 0.00115122524794467 invMass 78234.8902964686
BaseParticle id 102 indSpecies 0 position 0.013952367646664 0.0218292682228337 0.00184999294406734 orientation 1 0 0 0 velocity 0 0 0 angularVelocity 0 0 0 force 0 0 0 torque 0 0 0 radius 0.000642531631288387 invMass 449984.814060643
BaseParticle id 103 indSpecies 0 position 0.0901226403283676 0.017405660341116 0.0591531655200262 orientation 1 0 0 0 velocity 0 0 0 angularVelocity 0 0 0 force 0 0 0 torque 0 0 0 radius 0.000856080029151675 invMass 190255.97185323
BaseParticle id 104 indSpecies 0 position 0.0354076974695477 0.0899347657431525 0.0482796406855065 orientation 1 0 0 0 velocity 0 0 0 angularVelocity 0 0 0 force 0 0 0 torque 0 0 0 radius 0.00118794070622954 invMass 71202.8049338247
BaseParticle id 105 indSpecies 0 position 0.0789416384148024 0.039921243451609 0.0975595579505344 orientation 1 0 0 0 velocity 0 0 0 angularVelocity 0 0 0 force 0 0 0 torque 0 0 0 radius 0.000764223633268032 invMass 267436.083329248
BaseParticle id 106 indSpecies 0 position 0.0459180453364569 0.00489701050808931 0.0667317665491889 orientation 1 0 0 0 velocity 0 0 0 angularVelocity 0 0 0 force 0 0 0 torque 0 0 0 radius 0.00152790884536414 invMass 33464.86363709
BaseParticle id 107 indSpecies 0 position 0.091463232514017 0.0357483507732411 0.00694298110255693 orientation 1 0 0 0 velocity 0 0 0 angularVelocity 0 0 0 force 0 0 0 torque 0 0 0 radius 0.00103238455448322 invMass 108481.80425865
BaseParticle id 108 indSpecies 0 position 0.0197156201864448 0.0689581509968656 0.0712477112456712 orientation 1 0 0 0 velocity 0 0 0 angularVelocity 0 0 0 force 0 0 0 torque 0 0 0 radius 0.0014093106883771 invMass 42644.3165027939
BaseParticle id 109 indSpecies 0 position 0.03247578597397 0.0517880295852311 0.0118161669822259 orientation 1 0 0 0 velocity 0 0 0 angularVelocity 0 0 0 force 0 0 0 torque 0 0 0 radius 0.00108033164947081 invMass 94669.502932935
BaseParticle id 110 indSpecies 0 position 0.0621600835005193 0.0427312113878026 0.0504525359250116 orientation 1 0 0 0 velocity 0 0 0 angularVelocity 0 0 0 force 0 0 0 torque 0 0 0 radius 0.000835047406363372 invMass 204997.233737922
BaseParticle id 111 indSpecies 0 position 0.00227308962282438 0.0599255910516478 0.0582676798493902 orientation 1 0 0 0 velocity 0 0 0 angularVelocity 0 0 0 force 0 0 0 torque 0 0 0 radius 0.00187573990444505 invMass 18086.8752017101
BaseParticle id 112 indSpecies 0 position 0.074229058647315 0.0211499512929935 0.0128865970178632 orientation 1 0 0 0 velocity 0 0 0 angularVelocity 0 0 0 force 0 0 0 torque 0 0 0 radius 0.000514009050213091 invMass 878959.972329401
BaseParticle id 113 indSpecies 0 position 0.0634428459560099 0.0693970971094471 0.0958932214454811 orientation 1 0 0 0 velocity 0 0 0 angularVelocity 0 0 0 force 0 0 0 torque 0 0 0 radius 0.00117337865692691 invMass 73886.7972737263
BaseParticle id 114 indSpecies 0 position 0.0581402318010663 0.00838723284342584 0.0230292574288051 orientation 1 0 0 0 velocity 0 0 0 angularVelocity 0 0 0 force 0 0 0 torque 0 0 0 radius 0.000812403169089937 invMass 222621.225128203
BaseParticle id 115 indSpecies 0 position 0.0773756099144224 0.0168108739733595 0.0397501292268279 orientation 1 0 0 0 velocity 0 0 0 angularVelocity 0 0 0 force 0 0 0 torque 0 0 0 radius 0.00108564374570879 invMass 93286.6270623662
BaseParticle id 116 indSpecies 0 position 0.0918882478104082 0.0951110308104092 0.0702510657066004 orientation 1 0 0 0 velocity 0 0 0 angularVelocity 0 0 0 force 0 0 0 torque 0 0 0 radius 0.000619996745409358 invMass 500856.328756949
BaseParticle id 117 indSpecies 0 position 0.060367269385264 0.0360272755510851 0.0517899477372039 orientation 1 0 0 0 velocity 0 0 0 angularVelocity 0 0 0 force 0 0 0 torque 0 0 0 radius 0.000676211882982072 invMass 386040.616174495
BaseParticle id 118 indSpecies 0 position 0.0635821560736912 0.00818539214489478 0.0377053773610803 orientation 1 0 0 0 velocity 0 0 0 angularVelocity 0 0 0 force 0 0 0 torque 0 0 0 radius 0.00167240265161614 invMass 25518.7179992951