MercuryDPM 0.14 name PSDManualInsertionSelfTest revision 5811 repository https://svn.mercurydpm.org/SourceCode/Branches/Timo
dataFile    fileType ONE_FILE saveCount 10 counter 14 lastSavedTimeStep 121
fStatFile   fileType ONE_FILE saveCount 20 counter 8 lastSavedTimeStep 121
eneFile     fileType ONE_FILE saveCount 20 counter 8 lastSavedTimeStep 121
restartFile fileType ONE_FILE saveCount 20 counter 8 lastSavedTimeStep 121
statFile    fileType ONE_FILE saveCount 20 counter 0
interactionFile fileType NO_FILE saveCount 0 counter 0
xMin 0 xMax 0.1 yMin 0 yMax 0.1 zMin 0 zMax 0.1
timeStep 0.0001 time 0.0121 ntimeSteps 121 timeMax 0.012
systemDimensions 3 particleDimensions 3 gravity 0 0 0 writeVTK 0 NO_FILE NO_FILE 0 0 0 0 random  0 1103515245 12345 1073741824 607 273 784607267
Species 1
LinearViscoelasticSpecies id 0 density 2000 stiffness 10000 dissipation 0
Walls 0
Boundaries 1
CubeInsertionBoundary id 0 maxFailed 1 volumeFlowRate 0 massInserted 0.0803409934502734 volumeInserted 4.01704967251367e-05 numberOfParticlesInserted 7013 isActivated 1 psd 47 0.000387645 0 0.000405195 0.00641963 0.000423541 0.0157881 0.000442717 0.0289129 0.000462761 0.0475877 0.000483713 0.0702285 0.000505613 0.096661 0.000528505 0.12752 0.000552434 0.162984 0.000577445 0.199952 0.00060359 0.236205 0.000630917 0.270216 0.000659483 0.300988 0.000689341 0.328802 0.000720551 0.354678 0.000753175 0.379335 0.000787275 0.404133 0.000822919 0.430189 0.000860177 0.458372 0.000899122 0.489708 0.000939831 0.524177 0.000982382 0.561866 0.00102686 0.602098 0.00107335 0.643887 0.00112195 0.686123 0.00117275 0.727694 0.00122584 0.767495 0.00128134 0.804712 0.00133936 0.838663 0.0014 0.868961 0.00146338 0.895445 0.00152964 0.918157 0.00159889 0.937242 0.00167128 0.952947 0.00174695 0.965604 0.00182605 0.975541 0.00190872 0.983136 0.00199514 0.988764 0.00208547 0.992798 0.00217989 0.995601 0.00227859 0.997454 0.00238175 0.998635 0.00248959 0.999345 0.0026023 0.999741 0.00272012 0.999939 0.00284328 0.999995 0.00297201 1 initialVolume 4.01703e-05 samplingInterval 0 variableCumulativeVolumeFlowRate 0 particleToCopy BaseParticle id 0 indSpecies 0 position 0 0 0 orientation 1 0 0 0 velocity 0 0 0 angularVelocity 0 0 0 force 0 0 0 torque 0 0 0 radius 1 invMass 1 posMin 0 0 0 posMax 0.1 0.1 0.1 velMin 0 0 0 velMax 0 0 0 radMin 1 radMax 2
Particles 7013
BaseParticle id 0 indSpecies 0 position 0.0429633479165255 0.0462818009347824 0.0451551026244135 orientation 1 0 0 0 velocity 0 0 0 angularVelocity 0 0 0 force 0 0 0 torque 0 0 0 radius 0.00264665172527884 invMass 6438.59350538061
BaseParticle id 1 indSpecies 0 position 0.0042086391670549 0.0886496798241048 0.0413787151301478 orientation 1 0 0 0 velocity 0 0 0 angularVelocity 0 0 0 force 0 0 0 torque 0 0 0 radius 0.00283629522988414 invMass 5231.51037988443
BaseParticle id 2 indSpecies 0 position 0.0636133957061792 0.0133658786179816 0.0342738464155478 orientation 1 0 0 0 velocity 0 0 0 angularVelocity 0 0 0 force 0 0 0 torque 0 0 0 radius 0.00256427207862072 invMass 7079.27991148051
BaseParticle id 3 indSpecies 0 position 0.0387400305469148 0.0428755277368468 0.0390974972032965 orientation 1 0 0 0 velocity 0 0 0 angularVelocity 0 0 0 force 0 0 0 torque 0 0 0 radius 0.00254891963778389 invMass 7207.96991385777
BaseParticle id 4 indSpecies 0 position 0.0214465732486485 0.0577091988569971 0.0775174578861171 orientation 1 0 0 0 velocity 0 0 0 angularVelocity 0 0 0 force 0 0 0 torque 0 0 0 radius 0.00263521506098664 invMass 6522.78709340932
BaseParticle id 5 indSpecies 0 position 0.0651623650778436 0.0306274980952707 0.09859161777553 orientation 1 0 0 0 velocity 0 0 0 angularVelocity 0 0 0 force 0 0 0 torque 0 0 0 radius 0.00258129848143961 invMass 6940.11580515464
BaseParticle id 6 indSpecies 0 position 0.020833188648491 0.0969839190161005 0.0537878006195763 orientation 1 0 0 0 velocity 0 0 0 angularVelocity 0 0 0 force 0 0 0 torque 0 0 0 radius 0.00244791102859134 invMass 8137.56570412121
BaseParticle id 7 indSpecies 0 position 0.0571803620483909 0.0965598651240022 0.0187199103471638 orientation 1 0 0 0 velocity 0 0 0 angularVelocity 0 0 0 force 0 0 0 torque 0 0 0 radius 0.00238500579004069 invMass 8798.59002345016
BaseParticle id 8 indSpecies 0 position 0.015762079864962 0.0400944960861518 0.0128699160061126 orientation 1 0 0 0 velocity 0 0 0 angularVelocity 0 0 0 force 0 0 0 torque 0 0 0 radius 0.00245453690697145 invMass 8071.84279533448
BaseParticle id 9 indSpecies 0 position 0.047419029430096 0.0279508040026288 0.0584089572928763 orientation 1 0 0 0 velocity 0 0 0 angularVelocity 0 0 0 force 0 0 0 torque 0 0 0 radius 0.00238225689484102 invMass 8829.08336123414
BaseParticle id 10 indSpecies 0 position 0.00403006849435152 0.0288280775502063 0.0903246029370235 orientation 1 0 0 0 velocity 0 0 0 angularVelocity 0 0 0 force 0 0 0 torque 0 0 0 radius 0.00241682470956487 invMass 8455.62934941399
BaseParticle id 11 indSpecies 0 position 0.0680974906607554 0.0631496571347586 0.0324050429906649 orientation 1 0 0 0 velocity 0 0 0 angularVelocity 0 0 0 force 0 0 0 torque 0 0 0 radius 0.00228148415390603 invMass 10051.457133999
BaseParticle id 12 indSpecies 0 position 0.0425251628807512 0.07872364187732 0.0372247448775687 orientation 1 0 0 0 velocity 0 0 0 angularVelocity 0 0 0 force 0 0 0 torque 0 0 0 radius 0.00234466970857707 invMass 9260.54138497726
BaseParticle id 13 indSpecies 0 position 0.0440465642660423 0.00549294957379536 0.00311985714070513 orientation 1 0 0 0 velocity 0 0 0 angularVelocity 0 0 0 force 0 0 0 torque 0 0 0 radius 0.00232924476198105 invMass 9445.74055038957
BaseParticle id 14 indSpecies 0 position 0.0961035105436076 0.0816598897039333 0.0772353886838673 orientation 1 0 0 0 velocity 0 0 0 angularVelocity 0 0 0 force 0 0 0 torque 0 0 0 radius 0.00229495260762042 invMass 9875.52586030804
BaseParticle id 15 indSpecies 0 position 0.0505700907198991 0.0051891543854129 0.0810699480762054 orientation 1 0 0 0 velocity 0 0 0 angularVelocity 0 0 0 force 0 0 0 torque 0 0 0 radius 0.00230915246210647 invMass 9694.45882431082
BaseParticle id 16 indSpecies 0 position 0.0325601021455972 0.0326618832231854 0.00353757207883749 orientation 1 0 0 0 velocity 0 0 0 angularVelocity 0 0 0 force 0 0 0 torque 0 0 0 radius 0.00231159546707839 invMass 9663.75458956983
BaseParticle id 17 indSpecies 0 position 0.0486500113749411 0.0716722087267114 0.0464099253095594 orientation 1 0 0 0 velocity 0 0 0 angularVelocity 0 0 0 force 0 0 0 torque 0 0 0 radius 0.00241675064990515 invMass 8456.40672405461
BaseParticle id 18 indSpecies 0 position 0.076193224195211 0.0434264381011702 0.0280959023832382 orientation 1 0 0 0 velocity 0 0 0 angularVelocity 0 0 0 force 0 0 0 torque 0 0 0 radius 0.00234101528380584 invMass 9303.97742098335
BaseParticle id 19 indSpecies 0 position 0.0099951959122017 0.0789237790937314 0.00405941335106323 orientation 1 0 0 0 velocity 0 0 0 angularVelocity 0 0 0 force 0 0 0 torque 0 0 0 radius 0.00230446563969786 invMass 9753.72897815564
BaseParticle id 20 indSpecies 0 position 0.0324626619625253 0.00506626339157461 0.09576988434813 orientation 1 0 0 0 velocity 0 0 0 angularVelocity 0 0 0 force 0 0 0 torque 0 0 0 radius 0.00228179190420482 invMass 10047.3906960247
BaseParticle id 21 indSpecies 0 position 0.0444340212788116 0.0262642771692348 0.0849237541808526 orientation 1 0 0 0 velocity 0 0 0 angularVelocity 0 0 0 force 0 0 0 torque 0 0 0 radius 0.00226876253132584 invMass 10221.4914924708
BaseParticle id 22 indSpecies 0 position 0.0962416532484427 0.0625728522775948 0.0757689981947011 orientation 1 0 0 0 velocity 0 0 0 angularVelocity 0 0 0 force 0 0 0 torque 0 0 0 radius 0.00220169766450276 invMass 11184.2882067838
BaseParticle id 23 indSpecies 0 position 0.0421506992148695 0.0171126255606184 0.00570846078385743 orientation 1 0 0 0 velocity 0 0 0 angularVelocity 0 0 0 force 0 0 0 torque 0 0 0 radius 0.00227359695325102 invMass 10156.4271841975
BaseParticle id 24 indSpecies 0 position 0.0561625907605862 0.0634981227447296 0.0429515278498162 orientation 1 0 0 0 velocity 0 0 0 angularVelocity 0 0 0 force 0 0 0 torque 0 0 0 radius 0.00292495968706061 invMass 4770.03692022302
BaseParticle id 25 indSpecies 0 position 0.0432653544999051 0.0182147727178272 0.0998274202460168 orientation 1 0 0 0 velocity 0 0 0 angularVelocity 0 0 0 force 0 0 0 torque 0 0 0 radius 0.00224513216900476 invMass 10547.6487091649
BaseParticle id 26 indSpecies 0 position 0.00755647597130715 0.0433548083125103 0.0614671393656478 orientation 1 0 0 0 velocity 0 0 0 angularVelocity 0 0 0 force 0 0 0 torque 0 0 0 radius 0.00221970011073947 invMass 10914.3652631643
BaseParticle id 27 indSpecies 0 position 0.0472578531622348 0.0618409596738955 0.0319048466795079 orientation 1 0 0 0 velocity 0 0 0 angularVelocity 0 0 0 force 0 0 0 torque 0 0 0 radius 0.0022115637559739 invMass 11035.2710098129
BaseParticle id 28 indSpecies 0 position 0.0864861215590629 0.0102355983944278 0.0832432083010271 orientation 1 0 0 0 velocity 0 0 0 angularVelocity 0 0 0 force 0 0 0 torque 0 0 0 radius 0.00225699943738746 invMass 10382.1438647171
BaseParticle id 29 indSpecies 0 position 0.0747353806395686 0.0534517348246167 0.00837098461727521 orientation 1 0 0 0 velocity 0 0 0 angularVelocity 0 0 0 force 0 0 0 torque 0 0 0 radius 0.00223044041840841 invMass 10757.4544457614
BaseParticle id 30 indSpecies 0 position 0.0373731049360958 0.0911510293454388 0.0738148986605789 orientation 1 0 0 0 velocity 0 0 0 angularVelocity 0 0 0 force 0 0 0 torque 0 0 0 radius 0.00223135254256581 invMass 10744.2676586493
BaseParticle id 31 indSpecies 0 position 0.0940437695998291 0.0473327197624997 0.0966515618407619 orientation 1 0 0 0 velocity 0 0 0 angularVelocity 0 0 0 force 0 0 0 torque 0 0 0 radius 0.00226504634445362 invMass 10271.884272336
BaseParticle id 32 indSpecies 0 position 0.0267184714537873 0.00258612455559324 0.0779989904928962 orientation 1 0 0 0 velocity 0 0 0 angularVelocity 0 0 0 force 0 0 0 torque 0 0 0 radius 0.00227858453690469 invMass 10089.878987904
BaseParticle id 33 indSpecies 0 position 0.0252225785281299 0.052698124989217 0.0654509926536577 orientation 1 0 0 0 velocity 0 0 0 angularVelocity 0 0 0 force 0 0 0 torque 0 0 0 radius 0.00220074141910238 invMass 11198.8736166715
BaseParticle id 34 indSpecies 0 position 0.0154171871809129 0.007775785487354 0.0379114581850251 orientation 1 0 0 0 velocity 0 0 0 angularVelocity 0 0 0 force 0 0 0 torque 0 0 0 radius 0.0022634203722424 invMass 10294.0372044974
BaseParticle id 35 indSpecies 0 position 0.0338039195781537 0.0327630155414687 0.0586293312174926 orientation 1 0 0 0 velocity 0 0 0 angularVelocity 0 0 0 force 0 0 0 torque 0 0 0 radius 0.00216337510428132 invMass 11789.242801821
BaseParticle id 36 indSpecies 0 position 0.00216634226761168 0.023198932108284 0.0758287987896904 orientation 1 0 0 0 velocity 0 0 0 angularVelocity 0 0 0 force 0 0 0 torque 0 0 0 radius 0.0022073206387757 invMass 11099.0324965825
BaseParticle id 37 indSpecies 0 position 0.0269550367007451 0.0592843265651871 0.0151729742855085 orientation 1 0 0 0 velocity 0 0 0 angularVelocity 0 0 0 force 0 0 0 torque 0 0 0 radius 0.00215279948140083 invMass 11963.8416066292
BaseParticle id 38 indSpecies 0 position 0.0504671040452392 0.0367913936853489 0.0543931095354323 orientation 1 0 0 0 velocity 0 0 0 angularVelocity 0 0 0 force 0 0 0 torque 0 0 0 radius 0.00216274038155403 invMass 11799.6255967833
BaseParticle id 39 indSpecies 0 position 0.0644646338518107 0.0850706287798745 0.0477591144407549 orientation 1 0 0 0 velocity 0 0 0 angularVelocity 0 0 0 force 0 0 0 torque 0 0 0 radius 0.00213341003277283 invMass 12293.0145511754
BaseParticle id 40 indSpecies 0 position 0.0117204199435931 0.000377548951303996 0.0266609168363168 orientation 1 0 0 0 velocity 0 0 0 angularVelocity 0 0 0 force 0 0 0 torque 0 0 0 radius 0.00208790049656505 invMass 13114.5079980756
BaseParticle id 41 indSpecies 0 position 0.0970729528953573 0.0969606445199245 0.09241394354737 orientation 1 0 0 0 velocity 0 0 0 angularVelocity 0 0 0 force 0 0 0 torque 0 0 0 radius 0.00213945710625897 invMass 12189.0720358788
BaseParticle id 42 indSpecies 0 position 0.0569164710520613 0.0588207174476043 0.0884957535299512 orientation 1 0 0 0 velocity 0 0 0 angularVelocity 0 0 0 force 0 0 0 torque 0 0 0 radius 0.00210540463265856 invMass 12790.1215685414
BaseParticle id 43 indSpecies 0 position 0.0446456021213479 0.0117705129908672 0.0417646053789513 orientation 1 0 0 0 velocity 0 0 0 angularVelocity 0 0 0 force 0 0 0 torque 0 0 0 radius 0.00208991995122679 invMass 13076.5277328332
BaseParticle id 44 indSpecies 0 position 0.0294178750091997 0.0783922997504544 0.0458044878711882 orientation 1 0 0 0 velocity 0 0 0 angularVelocity 0 0 0 force 0 0 0 torque 0 0 0 radius 0.00213908658132861 invMass 12195.4071755482
BaseParticle id 45 indSpecies 0 position 0.0266911341560156 0.0777098060793152 0.0743848989956222 orientation 1 0 0 0 velocity 0 0 0 angularVelocity 0 0 0 force 0 0 0 torque 0 0 0 radius 0.0021338192177563 invMass 12285.9439159619
BaseParticle id 46 indSpecies 0 position 0.022109877856346 0.00506495804985523 0.0312824384018011 orientation 1 0 0 0 velocity 0 0 0 angularVelocity 0 0 0 force 0 0 0 torque 0 0 0 radius 0.00217173428547011 invMass 11653.6328658045
BaseParticle id 47 indSpecies 0 position 0.0686011585699383 0.0798690657318858 0.0211302195478881 orientation 1 0 0 0 velocity 0 0 0 angularVelocity 0 0 0 force 0 0 0 torque 0 0 0 radius 0.0020956626709233 invMass 12969.3216816497
BaseParticle id 48 indSpecies 0 position 0.0935104752019882 0.0486952222430192 0.0594294081819901 orientation 1 0 0 0 velocity 0 0 0 angularVelocity 0 0 0 force 0 0 0 torque 0 0 0 radius 0.00213377432196839 invMass 12286.7194413758
BaseParticle id 49 indSpecies 0 position 0.0128010361336162 0.0439465037137768 0.0605432332860834 orientation 1 0 0 0 velocity 0 0 0 angularVelocity 0 0 0 force 0 0 0 torque 0 0 0 radius 0.00211856770053438 invMass 12553.1972981494
BaseParticle id 50 indSpecies 0 position 0.099520420004129 0.0684156378093961 0.0893831915320985 orientation 1 0 0 0 velocity 0 0 0 angularVelocity 0 0 0 force 0 0 0 torque 0 0 0 radius 0.00209391636763627 invMass 13001.7975672809
BaseParticle id 51 indSpecies 0 position 0.0988053049903314 0.045253724097038 0.0833900956591683 orientation 1 0 0 0 velocity 0 0 0 angularVelocity 0 0 0 force 0 0 0 torque 0 0 0 radius 0.00211226222528774 invMass 12665.9537503673
BaseParticle id 52 indSpecies 0 position 0.0494108574936065 0.0635016978126935 0.0877292337941665 orientation 1 0 0 0 velocity 0 0 0 angularVelocity 0 0 0 force 0 0 0 torque 0 0 0 radius 0.00208983962716861 invMass 13078.0355999429
BaseParticle id 53 indSpecies 0 position 0.0470675132730347 0.0921825840210704 0.085486751249538 orientation 1 0 0 0 velocity 0 0 0 angularVelocity 0 0 0 force 0 0 0 torque 0 0 0 radius 0.00217097128359126 invMass 11665.9244183452
BaseParticle id 54 indSpecies 0 position 0.00254601062969675 0.0519682149850128 0.0503574847706058 orientation 1 0 0 0 velocity 0 0 0 angularVelocity 0 0 0 force 0 0 0 torque 0 0 0 radius 0.00216858118927125 invMass 11704.5396224644
BaseParticle id 55 indSpecies 0 position 0.0242646593374529 0.0213247085722865 0.0293926140019739 orientation 1 0 0 0 velocity 0 0 0 angularVelocity 0 0 0 force 0 0 0 torque 0 0 0 radius 0.00217059170689772 invMass 11672.0456350676
BaseParticle id 56 indSpecies 0 position 0.0166009553553528 0.0388066255126087 0.00282860956822653 orientation 1 0 0 0 velocity 0 0 0 angularVelocity 0 0 0 force 0 0 0 torque 0 0 0 radius 0.00208253740979808 invMass 13216.0891684407
BaseParticle id 57 indSpecies 0 position 0.0557727767566472 0.0698103582767673 0.0918470906169647 orientation 1 0 0 0 velocity 0 0 0 angularVelocity 0 0 0 force 0 0 0 torque 0 0 0 radius 0.00201035885251023 invMass 14691.3137967047
BaseParticle id 58 indSpecies 0 position 0.0102325176724861 0.0596129184033601 0.0183183245190249 orientation 1 0 0 0 velocity 0 0 0 angularVelocity 0 0 0 force 0 0 0 torque 0 0 0 radius 0.00200174501161586 invMass 14881.7885770667
BaseParticle id 59 indSpecies 0 position 0.0369706462724408 0.0199129210599578 0.0881592285929628 orientation 1 0 0 0 velocity 0 0 0 angularVelocity 0 0 0 force 0 0 0 torque 0 0 0 radius 0.00201874479548575 invMass 14508.988449297
BaseParticle id 60 indSpecies 0 position 0.0339532971997249 0.0183561906978896 0.096889858323252 orientation 1 0 0 0 velocity 0 0 0 angularVelocity 0 0 0 force 0 0 0 torque 0 0 0 radius 0.00215708325612712 invMass 11892.7057001074
BaseParticle id 61 indSpecies 0 position 0.0871216303788855 0.0846690296338228 0.0673004905066448 orientation 1 0 0 0 velocity 0 0 0 angularVelocity 0 0 0 force 0 0 0 torque 0 0 0 radius 0.00205166448682415 invMass 13821.7289390097
BaseParticle id 62 indSpecies 0 position 0.0429588166596752 0.0380378273892795 0.0498445376289594 orientation 1 0 0 0 velocity 0 0 0 angularVelocity 0 0 0 force 0 0 0 torque 0 0 0 radius 0.00203530421735608 invMass 14157.7225615483
BaseParticle id 63 indSpecies 0 position 0.0895836357124302 0.00326430303671927 0.071450651184236 orientation 1 0 0 0 velocity 0 0 0 angularVelocity 0 0 0 force 0 0 0 torque 0 0 0 radius 0.00202141951543097 invMass 14451.4702248311
BaseParticle id 64 indSpecies 0 position 0.0656577938556133 0.0429913051957346 0.0329004984042603 orientation 1 0 0 0 velocity 0 0 0 angularVelocity 0 0 0 force 0 0 0 torque 0 0 0 radius 0.00208372657637769 invMass 13193.4751205676
BaseParticle id 65 indSpecies 0 position 0.0620971977132399 0.0149347147765246 0.0537468226125959 orientation 1 0 0 0 velocity 0 0 0 angularVelocity 0 0 0 force 0 0 0 torque 0 0 0 radius 0.00208316682403764 invMass 13204.1133417429
BaseParticle id 66 indSpecies 0 position 0.0616555412657042 0.0915726233352231 0.0719495214783125 orientation 1 0 0 0 velocity 0 0 0 angularVelocity 0 0 0 force 0 0 0 torque 0 0 0 radius 0.00207024249330459 invMass 13452.9565441527
BaseParticle id 67 indSpecies 0 position 0.000901692732328829 0.0801335842533655 0.0479856011942163 orientation 1 0 0 0 velocity 0 0 0 angularVelocity 0 0 0 force 0 0 0 torque 0 0 0 radius 0.00200481775331235 invMass 14813.4663939079
BaseParticle id 68 indSpecies 0 position 0.0629404888833496 0.077991357466214 0.0251419934209977 orientation 1 0 0 0 velocity 0 0 0 angularVelocity 0 0 0 force 0 0 0 torque 0 0 0 radius 0.00204389835379375 invMass 13979.8822496364
BaseParticle id 69 indSpecies 0 position 0.0424296728871486 0.0177141948438117 0.0840283417291675 orientation 1 0 0 0 velocity 0 0 0 angularVelocity 0 0 0 force 0 0 0 torque 0 0 0 radius 0.00199795250568904 invMass 14966.6952079573
BaseParticle id 70 indSpecies 0 position 0.092023832824059 0.0220323394778815 0.0250499933724757 orientation 1 0 0 0 velocity 0 0 0 angularVelocity 0 0 0 force 0 0 0 torque 0 0 0 radius 0.00199766178731049 invMass 14973.2304382448
BaseParticle id 71 indSpecies 0 position 0.0863293279089692 0.0268780345778185 0.0426595558946398 orientation 1 0 0 0 velocity 0 0 0 angularVelocity 0 0 0 force 0 0 0 torque 0 0 0 radius 0.00203646985863033 invMass 14133.4255435128
BaseParticle id 72 indSpecies 0 position 0.0507823089596049 0.0654179626466539 0.044658502615375 orientation 1 0 0 0 velocity 0 0 0 angularVelocity 0 0 0 force 0 0 0 torque 0 0 0 radius 0.00205581436198666 invMass 13738.195992755
BaseParticle id 73 indSpecies 0 position 0.02356507030915 0.0626386648391945 0.0436484353210326 orientation 1 0 0 0 velocity 0 0 0 angularVelocity 0 0 0 force 0 0 0 torque 0 0 0 radius 0.00208158794118926 invMass 13234.1820666851
BaseParticle id 74 indSpecies 0 position 0.0737540905608292 0.0935611102790003 0.030934741319218 orientation 1 0 0 0 velocity 0 0 0 angularVelocity 0 0 0 force 0 0 0 torque 0 0 0 radius 0.00206396752877485 invMass 13576.0307666527
BaseParticle id 75 indSpecies 0 position 0.0133462469900528 0.0335512118101574 0.0607635003880006 orientation 1 0 0 0 velocity 0 0 0 angularVelocity 0 0 0 force 0 0 0 torque 0 0 0 radius 0.00203871409880623 invMass 14086.8021873984
BaseParticle id 76 indSpecies 0 position 0.0396378131214177 0.00145871201394245 0.0497256297155045 orientation 1 0 0 0 velocity 0 0 0 angularVelocity 0 0 0 force 0 0 0 torque 0 0 0 radius 0.00203151562567676 invMass 14237.0789608792
BaseParticle id 77 indSpecies 0 position 0.052633974652147 0.0904574840418459 0.0574903735355564 orientation 1 0 0 0 velocity 0 0 0 angularVelocity 0 0 0 force 0 0 0 torque 0 0 0 radius 0.00204904731462514 invMass 13874.7585605987
BaseParticle id 78 indSpecies 0 position 0.0347447213393219 0.0224759218073674 0.0857333733833084 orientation 1 0 0 0 velocity 0 0 0 angularVelocity 0 0 0 force 0 0 0 torque 0 0 0 radius 0.00202612140362653 invMass 14351.0937609675
BaseParticle id 79 indSpecies 0 position 0.0819761010986044 0.0749967138515816 0.037202677654845 orientation 1 0 0 0 velocity 0 0 0 angularVelocity 0 0 0 force 0 0 0 torque 0 0 0 radius 0.00206137927120254 invMass 13627.2329924938
BaseParticle id 80 indSpecies 0 position 0.0621539437564519 0.0387709238205376 0.041319174560421 orientation 1 0 0 0 velocity 0 0 0 angularVelocity 0 0 0 force 0 0 0 torque 0 0 0 radius 0.0020619274125253 invMass 13616.3679194716
BaseParticle id 81 indSpecies 0 position 0.0714202909996544 0.0966319254630879 0.00153605956441158 orientation 1 0 0 0 velocity 0 0 0 angularVelocity 0 0 0 force 0 0 0 torque 0 0 0 radius 0.00203161424967711 invMass 14235.0056595338
BaseParticle id 82 indSpecies 0 position 0.0903208902195833 0.0921103616318569 0.0778850681354431 orientation 1 0 0 0 velocity 0 0 0 angularVelocity 0 0 0 force 0 0 0 torque 0 0 0 radius 0.00202953921798617 invMass 14278.7125730299
BaseParticle id 83 indSpecies 0 position 0.0302552368210114 0.00694192675227119 0.0107153382983847 orientation 1 0 0 0 velocity 0 0 0 angularVelocity 0 0 0 force 0 0 0 torque 0 0 0 radius 0.0019980974668899 invMass 14963.4379603799
BaseParticle id 84 indSpecies 0 position 0.0348887757073261 0.0138253928033399 0.0435838821869494 orientation 1 0 0 0 velocity 0 0 0 angularVelocity 0 0 0 force 0 0 0 torque 0 0 0 radius 0.00204936804625158 invMass 13868.2452686467
BaseParticle id 85 indSpecies 0 position 0.0843299946893659 0.0399289263971812 0.0395847791437201 orientation 1 0 0 0 velocity 0 0 0 angularVelocity 0 0 0 force 0 0 0 torque 0 0 0 radius 0.00205690584857365 invMass 13716.3372853818
BaseParticle id 86 indSpecies 0 position 0.0674532694113876 0.0926583688774534 0.0311073244259625 orientation 1 0 0 0 velocity 0 0 0 angularVelocity 0 0 0 force 0 0 0 torque 0 0 0 radius 0.00202533933065588 invMass 14367.7249548316
BaseParticle id 87 indSpecies 0 position 0.0647014458061182 0.0870917761818582 0.0230914911040184 orientation 1 0 0 0 velocity 0 0 0 angularVelocity 0 0 0 force 0 0 0 torque 0 0 0 radius 0.00192182644407834 invMass 16816.6273412433
BaseParticle id 88 indSpecies 0 position 0.0450302669359089 0.0992501400418113 0.00930219254521449 orientation 1 0 0 0 velocity 0 0 0 angularVelocity 0 0 0 force 0 0 0 torque 0 0 0 radius 0.0019507408837166 invMass 16079.8738371036
BaseParticle id 89 indSpecies 0 position 0.0513598813197018 0.076014838203774 0.0849719511484989 orientation 1 0 0 0 velocity 0 0 0 angularVelocity 0 0 0 force 0 0 0 torque 0 0 0 radius 0.00196906773691506 invMass 15635.0554568888
BaseParticle id 90 indSpecies 0 position 0.0539767896253832 0.086017984537391 0.0723647109490217 orientation 1 0 0 0 velocity 0 0 0 angularVelocity 0 0 0 force 0 0 0 torque 0 0 0 radius 0.0019157984938014 invMass 16975.8649894767
BaseParticle id 91 indSpecies 0 position 0.0152771792232271 0.0946795410526176 0.0412491670425524 orientation 1 0 0 0 velocity 0 0 0 angularVelocity 0 0 0 force 0 0 0 torque 0 0 0 radius 0.00192152280274201 invMass 16824.6007519026
BaseParticle id 92 indSpecies 0 position 0.0635616950098782 0.00954264774029828 0.0716686687696086 orientation 1 0 0 0 velocity 0 0 0 angularVelocity 0 0 0 force 0 0 0 torque 0 0 0 radius 0.00194254536667888 invMass 16284.2546210655
BaseParticle id 93 indSpecies 0 position 0.0142968914338417 0.0735978252500316 0.0406718544283213 orientation 1 0 0 0 velocity 0 0 0 angularVelocity 0 0 0 force 0 0 0 torque 0 0 0 radius 0.00198702563994131 invMass 15214.9658389528
BaseParticle id 94 indSpecies 0 position 0.0755628695939082 0.0360331155024161 0.021571674177822 orientation 1 0 0 0 velocity 0 0 0 angularVelocity 0 0 0 force 0 0 0 torque 0 0 0 radius 0.00191776427524584 invMass 16923.7157559111
BaseParticle id 95 indSpecies 0 position 0.0693145474704779 0.0107353513960397 0.0453181019562128 orientation 1 0 0 0 velocity 0 0 0 angularVelocity 0 0 0 force 0 0 0 torque 0 0 0 radius 0.00197737495876776 invMass 15438.8271522139
BaseParticle id 96 indSpecies 0 position 0.0922581247126142 0.0930748260644499 0.0862769446463539 orientation 1 0 0 0 velocity 0 0 0 angularVelocity 0 0 0 force 0 0 0 torque 0 0 0 radius 0.00199198039935052 invMass 15101.7130110877
BaseParticle id 97 indSpecies 0 position 0.0147158287328521 0.0674126155046629 0.086778180965429 orientation 1 0 0 0 velocity 0 0 0 angularVelocity 0 0 0 force 0 0 0 torque 0 0 0 radius 0.00193690697657178 invMass 16426.8807601778
BaseParticle id 98 indSpecies 0 position 0.0135726919271306 0.0795493101891602 0.010277583347375 orientation 1 0 0 0 velocity 0 0 0 angularVelocity 0 0 0 force 0 0 0 torque 0 0 0 radius 0.00194327130284974 invMass 16266.0118044998
BaseParticle id 99 indSpecies 0 position 0.066649111391372 0.0545839018611388 0.0942253700511294 orientation 1 0 0 0 velocity 0 0 0 angularVelocity 0 0 0 force 0 0 0 torque 0 0 0 radius 0.00196336974602442 invMass 15771.5766623143
BaseParticle id 100 indSpecies 0 position 0.0170929364700867 0.0969015753856845 0.00498563861010073 orientation 1 0 0 0 velocity 0 0 0 angularVelocity 0 0 0 force 0 0 0 torque 0 0 0 radius 0.00193340364888115 invMass 16516.3391941554
BaseParticle id 101 indSpecies 0 position 0.0476348421092752 0.0147536236655399 0.0518573951424496 orientation 1 0 0 0 velocity 0 0 0 angularVelocity 0 0 0 force 0 0 0 torque 0 0 0 radius 0.00195044899652585 invMass 16087.0940386599
BaseParticle id 102 indSpecies 0 position 0.00796576812121479 0.0736336674786791 0.0892099632050749 orientation 1 0 0 0 velocity 0 0 0 angularVelocity 0 0 0 force 0 0 0 torque 0 0 0 radius 0.00195868638285296 invMass 15884.9803858762
BaseParticle id 103 indSpecies 0 position 0.0208204010307599 0.0714064499629602 0.00439413180165538 orientation 1 0 0 0 velocity 0 0 0 angularVelocity 0 0 0 force 0 0 0 torque 0 0 0 radius 0.00195105473794402 invMass 16072.1150728496
BaseParticle id 104 indSpecies 0 position 0.0984752233154371 0.090121591100356 0.0810711832893349 orientation 1 0 0 0 velocity 0 0 0 angularVelocity 0 0 0 force 0 0 0 torque 0 0 0 radius 0.0019777686913107 invMass 15429.608341199
BaseParticle id 105 indSpecies 0 position 0.0134619472422991 0.0286495233619124 0.0268494474451529 orientation 1 0 0 0 velocity 0 0 0 angularVelocity 0 0 0 force 0 0 0 torque 0 0 0 radius 0.00196936398872507 invMass 15628.0005649129
BaseParticle id 106 indSpecies 0 position 0.0743427677318987 0.0323728059117004 0.0858094801327126 orientation 1 0 0 0 velocity 0 0 0 angularVelocity 0 0 0 force 0 0 0 torque 0 0 0 radius 0.00191921135565573 invMass 16885.4632986371
BaseParticle id 107 indSpecies 0 position 0.0571930604454195 0.0712844222120155 0.0180153228174752 orientation 1 0 0 0 velocity 0 0 0 angularVelocity 0 0 0 force 0 0 0 torque 0 0 0 radius 0.00192918728023367 invMass 16624.8687604849
BaseParticle id 108 indSpecies 0 position 0.0274100038899016 0.0917371995824043 0.0726231762463011 orientation 1 0 0 0 velocity 0 0 0 angularVelocity 0 0 0 force 0 0 0 torque 0 0 0 radius 0.00193816607078766 invMass 16394.8872832867
BaseParticle id 109 indSpecies 0 position 0.0917397117319147 0.0651353690166628 0.0683081891682854 orientation 1 0 0 0 velocity 0 0 0 angularVelocity 0 0 0 force 0 0 0 torque 0 0 0 radius 0.00190969231127131 invMass 17139.2256397031
BaseParticle id 110 indSpecies 0 position 0.00127482032284623 0.0705311519368262 0.0849644390074867 orientation 1 0 0 0 velocity 0 0 0 angularVelocity 0 0 0 force 0 0 0 torque 0 0 0 radius 0.00191183321826753 invMass 17081.7116060403
BaseParticle id 111 indSpecies 0 position 0.0601588660290848 0.0523861444067339 0.0389925614567543 orientation 1 0 0 0 velocity 0 0 0 angularVelocity 0 0 0 force 0 0 0 torque 0 0 0 radius 0.00190932482651181 invMass 17149.1238243072
BaseParticle id 112 indSpecies 0 position 0.0568431507266656 0.0646791353219383 0.0359738514423614 orientation 1 0 0 0 velocity 0 0 0 angularVelocity 0 0 0 force 0 0 0 torque 0 0 0 radius 0.00196126916212998 invMass 15822.3065917534
BaseParticle id 113 indSpecies 0 position 0.0999761773273571 0.0230888765090249 0.0441390457152025 orientation 1 0 0 0 velocity 0 0 0 angularVelocity 0 0 0 force 0 0 0 torque 0 0 0 radius 0.001929988820692 invMass 16604.1640216451
BaseParticle id 114 indSpecies 0 position 0.00893305846589334 0.0190947039806334 0.0665667227780756 orientation 1 0 0 0 velocity 0 0 0 angularVelocity 0 0 0 force 0 0 0 torque 0 0 0 radius 0.00198888748105023 invMass 15172.2766384404
BaseParticle id 115 indSpecies 0 position 0.093205480563263 0.020453288387085 0.0748745822581699 orientation 1 0 0 0 velocity 0 0 0 angularVelocity 0 0 0 force 0 0 0 torque 0 0 0 radius 0.00192351156891488 invMass 16772.4685776243
BaseParticle id 116 indSpecies 0 position 0.0665931275425543 0.0266563164753315 0.0390199046218583 orientation 1 0 0 0 velocity 0 0 0 angularVelocity 0 0 0 force 0 0 0 torque 0 0 0 radius 0.00195756228200049 invMass 15912.3612398772
BaseParticle id 117 indSpecies 0 position 0.0930580266816001 0.013952367646664 0.0218292682228337 orientation 1 0 0 0 velocity 0 0 0 angularVelocity 0 0 0 force 0 0 0 torque 0 0 0 radius 0.00195368370743238 invMass 16007.3201405278
BaseParticle id 118 indSpecies 0 position 0.0206377711886188 0.0534512906768813 0.0901226403283676 orientation 1 0 0 0 velocity 0 0 0 angularVelocity 0 0 0 force 0 0 0 torque 0 0 0 radius 0.00197402101973973 invMass 15517.6544473513