MercuryDPM 1.0 name PSDManualInsertionSelfTest revision daca7dfd repository https://bitbucket.org/mercurydpm/mercurydpm.git
dataFile    fileType ONE_FILE saveCount 10 counter 14 lastSavedTimeStep 121
fStatFile   fileType ONE_FILE saveCount 20 counter 8 lastSavedTimeStep 121
eneFile     fileType ONE_FILE saveCount 20 counter 8 lastSavedTimeStep 121
restartFile fileType ONE_FILE saveCount 20 counter 8 lastSavedTimeStep 121
statFile    fileType ONE_FILE saveCount 20 counter 0
interactionFile fileType NO_FILE saveCount 0 counter 0
xMin 0 xMax 0.1 yMin 0 yMax 0.1 zMin 0 zMax 0.1
timeStep 0.0001 time 0.0121 ntimeSteps 121 timeMax 0.012
systemDimensions 3 particleDimensions 3 gravity 0 0 0 backgroundDrag 0 writeVTK 0 NO_FILE NO_FILE 0 0 0 0 0 random  0 1103515245 12345 1073741824 607 273 784607267
Species 1
LinearViscoelasticSpecies id 0 density 2000 stiffness 10000 dissipation 0
Walls 0
Boundaries 1
CubeInsertionBoundary id 0 maxFailed 1 volumeFlowRate 0 massInserted 0.0803421808770558 volumeInserted 4.01710904385277e-05 numberOfParticlesInserted 5763 isActivated 1 psdCount 1 psd 47 0.000387645 0 0.000405195 0.00641963 0.000423541 0.0157881 0.000442717 0.0289129 0.000462761 0.0475877 0.000483713 0.0702285 0.000505613 0.096661 0.000528505 0.12752 0.000552434 0.162984 0.000577445 0.199952 0.00060359 0.236205 0.000630917 0.270216 0.000659483 0.300988 0.000689341 0.328802 0.000720551 0.354678 0.000753175 0.379335 0.000787275 0.404133 0.000822919 0.430189 0.000860177 0.458372 0.000899122 0.489708 0.000939831 0.524177 0.000982382 0.561866 0.00102686 0.602098 0.00107335 0.643887 0.00112195 0.686123 0.00117275 0.727694 0.00122584 0.767495 0.00128134 0.804712 0.00133936 0.838663 0.0014 0.868961 0.00146338 0.895445 0.00152964 0.918157 0.00159889 0.937242 0.00167128 0.952947 0.00174695 0.965604 0.00182605 0.975541 0.00190872 0.983136 0.00199514 0.988764 0.00208547 0.992798 0.00217989 0.995601 0.00227859 0.997454 0.00238175 0.998635 0.00248959 0.999345 0.0026023 0.999741 0.00272012 0.999939 0.00284328 0.999995 0.00297201 1 initialVolume 4.01703e-05 samplingInterval 0 variableCumulativeVolumeFlowRate 0 particleToCopy 1 BaseParticle id 0 indSpecies 0 position 0 0 0 orientation 1 0 0 0 velocity 0 0 0 angularVelocity 0 0 0 force 0 0 0 torque 0 0 0 radius 1 invMass 1 timeStamp 0 posMin 0 0 0 posMax 0.1 0.1 0.1 velMin 0 0 0 velMax 0 0 0
Particles 5763
BaseParticle id 0 indSpecies 0 position 0.0462818009347824 0.0451551026244135 0.084762122589385 orientation 1 0 0 0 velocity 0 0 0 angularVelocity 0 0 0 force 0 0 0 torque 0 0 0 radius 0.00264665172527884 invMass 6438.59350538061 timeStamp 0
BaseParticle id 1 indSpecies 0 position 0.0413787151301478 0.00993150145753146 0.0771077505526061 orientation 1 0 0 0 velocity 0 0 0 angularVelocity 0 0 0 force 0 0 0 torque 0 0 0 radius 0.00283629522988414 invMass 5231.51037988443 timeStamp 0
BaseParticle id 2 indSpecies 0 position 0.0595721126910559 0.0926644036614668 0.0072714161991408 orientation 1 0 0 0 velocity 0 0 0 angularVelocity 0 0 0 force 0 0 0 torque 0 0 0 radius 0.00256427207862072 invMass 7079.27991148051 timeStamp 0
BaseParticle id 3 indSpecies 0 position 0.0193444608530547 0.0803075776618835 0.0214465732486485 orientation 1 0 0 0 velocity 0 0 0 angularVelocity 0 0 0 force 0 0 0 torque 0 0 0 radius 0.00254891963778389 invMass 7207.96991385777 timeStamp 0
BaseParticle id 4 indSpecies 0 position 0.029164158246327 0.0651623650778436 0.0306274980952707 orientation 1 0 0 0 velocity 0 0 0 angularVelocity 0 0 0 force 0 0 0 torque 0 0 0 radius 0.00263521506098664 invMass 6522.78709340932 timeStamp 0
BaseParticle id 5 indSpecies 0 position 0.020833188648491 0.0969839190161005 0.0537878006195763 orientation 1 0 0 0 velocity 0 0 0 angularVelocity 0 0 0 force 0 0 0 torque 0 0 0 radius 0.00258129848143961 invMass 6940.11580515464 timeStamp 0
BaseParticle id 6 indSpecies 0 position 0.0965598651240022 0.0187199103471638 0.0751426060915528 orientation 1 0 0 0 velocity 0 0 0 angularVelocity 0 0 0 force 0 0 0 torque 0 0 0 radius 0.00244791102859134 invMass 8137.56570412121 timeStamp 0
BaseParticle id 7 indSpecies 0 position 0.0128699160061126 0.0306166582455703 0.0591826113321049 orientation 1 0 0 0 velocity 0 0 0 angularVelocity 0 0 0 force 0 0 0 torque 0 0 0 radius 0.00238500579004069 invMass 8798.59002345016 timeStamp 0
BaseParticle id 8 indSpecies 0 position 0.0772737262050866 0.0846877715692969 0.0788350858922721 orientation 1 0 0 0 velocity 0 0 0 angularVelocity 0 0 0 force 0 0 0 torque 0 0 0 radius 0.00245453690697145 invMass 8071.84279533448 timeStamp 0
BaseParticle id 9 indSpecies 0 position 0.0890366296386005 0.0611222965073564 0.0680974906607554 orientation 1 0 0 0 velocity 0 0 0 angularVelocity 0 0 0 force 0 0 0 torque 0 0 0 radius 0.00238225689484102 invMass 8829.08336123414 timeStamp 0
BaseParticle id 10 indSpecies 0 position 0.0895757810309755 0.0425251628807512 0.07872364187732 orientation 1 0 0 0 velocity 0 0 0 angularVelocity 0 0 0 force 0 0 0 torque 0 0 0 radius 0.00241682470956487 invMass 8455.62934941399 timeStamp 0
BaseParticle id 11 indSpecies 0 position 0.0440465642660423 0.00549294957379536 0.00311985714070513 orientation 1 0 0 0 velocity 0 0 0 angularVelocity 0 0 0 force 0 0 0 torque 0 0 0 radius 0.00228148415390603 invMass 10051.457133999 timeStamp 0
BaseParticle id 12 indSpecies 0 position 0.0816598897039333 0.0772353886838673 0.0455273494631729 orientation 1 0 0 0 velocity 0 0 0 angularVelocity 0 0 0 force 0 0 0 torque 0 0 0 radius 0.00234466970857707 invMass 9260.54138497726 timeStamp 0
BaseParticle id 13 indSpecies 0 position 0.0810699480762054 0.0967712630547851 0.058317498808431 orientation 1 0 0 0 velocity 0 0 0 angularVelocity 0 0 0 force 0 0 0 torque 0 0 0 radius 0.00232924476198105 invMass 9445.74055038957 timeStamp 0
BaseParticle id 14 indSpecies 0 position 0.0256943308509008 0.0332247916299619 0.00975970969557789 orientation 1 0 0 0 velocity 0 0 0 angularVelocity 0 0 0 force 0 0 0 torque 0 0 0 radius 0.00229495260762042 invMass 9875.52586030804 timeStamp 0
BaseParticle id 15 indSpecies 0 position 0.0690963677418452 0.048267025548716 0.076193224195211 orientation 1 0 0 0 velocity 0 0 0 angularVelocity 0 0 0 force 0 0 0 torque 0 0 0 radius 0.00230915246210647 invMass 9694.45882431082 timeStamp 0
BaseParticle id 16 indSpecies 0 position 0.0430958077841477 0.0324626619625253 0.00506626339157461 orientation 1 0 0 0 velocity 0 0 0 angularVelocity 0 0 0 force 0 0 0 torque 0 0 0 radius 0.00231159546707839 invMass 9663.75458956983 timeStamp 0
BaseParticle id 17 indSpecies 0 position 0.0444340212788116 0.0262642771692348 0.0849237541808526 orientation 1 0 0 0 velocity 0 0 0 angularVelocity 0 0 0 force 0 0 0 torque 0 0 0 radius 0.00241675064990515 invMass 8456.40672405461 timeStamp 0
BaseParticle id 18 indSpecies 0 position 0.0625728522775948 0.0757689981947011 0.0841023461109937 orientation 1 0 0 0 velocity 0 0 0 angularVelocity 0 0 0 force 0 0 0 torque 0 0 0 radius 0.00234101528380584 invMass 9303.97742098335 timeStamp 0
BaseParticle id 19 indSpecies 0 position 0.00570846078385743 0.00911323026836548 0.0444778516474386 orientation 1 0 0 0 velocity 0 0 0 angularVelocity 0 0 0 force 0 0 0 torque 0 0 0 radius 0.00230446563969786 invMass 9753.72897815564 timeStamp 0
BaseParticle id 20 indSpecies 0 position 0.025231956760183 0.0747495385122024 0.084527385714904 orientation 1 0 0 0 velocity 0 0 0 angularVelocity 0 0 0 force 0 0 0 torque 0 0 0 radius 0.00228179190420482 invMass 10047.3906960247 timeStamp 0
BaseParticle id 21 indSpecies 0 position 0.0783926210567424 0.0121918775959016 0.00755647597130715 orientation 1 0 0 0 velocity 0 0 0 angularVelocity 0 0 0 force 0 0 0 torque 0 0 0 radius 0.00226876253132584 invMass 10221.4914924708 timeStamp 0
BaseParticle id 22 indSpecies 0 position 0.0441164535990763 0.0472578531622348 0.0618409596738955 orientation 1 0 0 0 velocity 0 0 0 angularVelocity 0 0 0 force 0 0 0 torque 0 0 0 radius 0.00220169766450276 invMass 11184.2882067838 timeStamp 0
BaseParticle id 23 indSpecies 0 position 0.0864861215590629 0.0102355983944278 0.0832432083010271 orientation 1 0 0 0 velocity 0 0 0 angularVelocity 0 0 0 force 0 0 0 torque 0 0 0 radius 0.00227359695325102 invMass 10156.4271841975 timeStamp 0
BaseParticle id 24 indSpecies 0 position 0.0534517348246167 0.00837098461727521 0.0522019398843852 orientation 1 0 0 0 velocity 0 0 0 angularVelocity 0 0 0 force 0 0 0 torque 0 0 0 radius 0.00292495968706061 invMass 4770.03692022302 timeStamp 0
BaseParticle id 25 indSpecies 0 position 0.0738148986605789 0.0559428380281266 0.0700997407826597 orientation 1 0 0 0 velocity 0 0 0 angularVelocity 0 0 0 force 0 0 0 torque 0 0 0 radius 0.00224513216900476 invMass 10547.6487091649 timeStamp 0
BaseParticle id 26 indSpecies 0 position 0.0436748553592015 0.0597098215858361 0.057567957176298 orientation 1 0 0 0 velocity 0 0 0 angularVelocity 0 0 0 force 0 0 0 torque 0 0 0 radius 0.00221970011073947 invMass 10914.3652631643 timeStamp 0
BaseParticle id 27 indSpecies 0 position 0.0881635907216337 0.00587385044817452 0.0252225785281299 orientation 1 0 0 0 velocity 0 0 0 angularVelocity 0 0 0 force 0 0 0 torque 0 0 0 radius 0.0022115637559739 invMass 11035.2710098129 timeStamp 0
BaseParticle id 28 indSpecies 0 position 0.0270183332944118 0.0154171871809129 0.007775785487354 orientation 1 0 0 0 velocity 0 0 0 angularVelocity 0 0 0 force 0 0 0 torque 0 0 0 radius 0.00225699943738746 invMass 10382.1438647171 timeStamp 0
BaseParticle id 29 indSpecies 0 position 0.0338039195781537 0.0327630155414687 0.0586293312174926 orientation 1 0 0 0 velocity 0 0 0 angularVelocity 0 0 0 force 0 0 0 torque 0 0 0 radius 0.00223044041840841 invMass 10757.4544457614 timeStamp 0
BaseParticle id 30 indSpecies 0 position 0.023198932108284 0.0758287987896904 0.0523946741107901 orientation 1 0 0 0 velocity 0 0 0 angularVelocity 0 0 0 force 0 0 0 torque 0 0 0 radius 0.00223135254256581 invMass 10744.2676586493 timeStamp 0
BaseParticle id 31 indSpecies 0 position 0.0151729742855085 0.0544205111875939 0.0921347505486247 orientation 1 0 0 0 velocity 0 0 0 angularVelocity 0 0 0 force 0 0 0 torque 0 0 0 radius 0.00226504634445362 invMass 10271.884272336 timeStamp 0
BaseParticle id 32 indSpecies 0 position 0.0539809540342717 0.0747160042871572 0.0531534103181647 orientation 1 0 0 0 velocity 0 0 0 angularVelocity 0 0 0 force 0 0 0 torque 0 0 0 radius 0.00227858453690469 invMass 10089.878987904 timeStamp 0
BaseParticle id 33 indSpecies 0 position 0.0905490531674129 0.0836178721081299 0.0117204199435931 orientation 1 0 0 0 velocity 0 0 0 angularVelocity 0 0 0 force 0 0 0 torque 0 0 0 radius 0.00220074141910238 invMass 11198.8736166715 timeStamp 0
BaseParticle id 34 indSpecies 0 position 0.0158523266987388 0.0970729528953573 0.0969606445199245 orientation 1 0 0 0 velocity 0 0 0 angularVelocity 0 0 0 force 0 0 0 torque 0 0 0 radius 0.0022634203722424 invMass 10294.0372044974 timeStamp 0
BaseParticle id 35 indSpecies 0 position 0.0569164710520613 0.0588207174476043 0.0884957535299512 orientation 1 0 0 0 velocity 0 0 0 angularVelocity 0 0 0 force 0 0 0 torque 0 0 0 radius 0.00216337510428132 invMass 11789.242801821 timeStamp 0
BaseParticle id 36 indSpecies 0 position 0.0117705129908672 0.0417646053789513 0.0800067577697274 orientation 1 0 0 0 velocity 0 0 0 angularVelocity 0 0 0 force 0 0 0 torque 0 0 0 radius 0.0022073206387757 invMass 11099.0324965825 timeStamp 0
BaseParticle id 37 indSpecies 0 position 0.0458044878711882 0.00235067689572397 0.0956917095038186 orientation 1 0 0 0 velocity 0 0 0 angularVelocity 0 0 0 force 0 0 0 torque 0 0 0 radius 0.00215279948140083 invMass 11963.8416066292 timeStamp 0
BaseParticle id 38 indSpecies 0 position 0.01539849274289 0.010402804230896 0.0730118187395746 orientation 1 0 0 0 velocity 0 0 0 angularVelocity 0 0 0 force 0 0 0 torque 0 0 0 radius 0.00216274038155403 invMass 11799.6255967833 timeStamp 0
BaseParticle id 39 indSpecies 0 position 0.00309774744967208 0.0418329746072805 0.0686011585699383 orientation 1 0 0 0 velocity 0 0 0 angularVelocity 0 0 0 force 0 0 0 torque 0 0 0 radius 0.00213341003277283 invMass 12293.0145511754 timeStamp 0
BaseParticle id 40 indSpecies 0 position 0.0228980703997444 0.0935104752019882 0.0486952222430192 orientation 1 0 0 0 velocity 0 0 0 angularVelocity 0 0 0 force 0 0 0 torque 0 0 0 radius 0.00208790049656505 invMass 13114.5079980756 timeStamp 0
BaseParticle id 41 indSpecies 0 position 0.0128010361336162 0.0439465037137768 0.0605432332860834 orientation 1 0 0 0 velocity 0 0 0 angularVelocity 0 0 0 force 0 0 0 torque 0 0 0 radius 0.00213945710625897 invMass 12189.0720358788 timeStamp 0
BaseParticle id 42 indSpecies 0 position 0.0684156378093961 0.0893831915320985 0.0970635949661363 orientation 1 0 0 0 velocity 0 0 0 angularVelocity 0 0 0 force 0 0 0 torque 0 0 0 radius 0.00210540463265856 invMass 12790.1215685414 timeStamp 0
BaseParticle id 43 indSpecies 0 position 0.0833900956591683 0.0276064363982469 0.0539636656139384 orientation 1 0 0 0 velocity 0 0 0 angularVelocity 0 0 0 force 0 0 0 torque 0 0 0 radius 0.00208991995122679 invMass 13076.5277328332 timeStamp 0
BaseParticle id 44 indSpecies 0 position 0.0169700750923063 0.0961445872707809 0.0791264746532529 orientation 1 0 0 0 velocity 0 0 0 angularVelocity 0 0 0 force 0 0 0 torque 0 0 0 radius 0.00213908658132861 invMass 12195.4071755482 timeStamp 0
BaseParticle id 45 indSpecies 0 position 0.06034812148628 0.029246981694133 0.00254601062969675 orientation 1 0 0 0 velocity 0 0 0 angularVelocity 0 0 0 force 0 0 0 torque 0 0 0 radius 0.0021338192177563 invMass 12285.9439159619 timeStamp 0
BaseParticle id 46 indSpecies 0 position 0.0190150813022488 0.0242646593374529 0.0213247085722865 orientation 1 0 0 0 velocity 0 0 0 angularVelocity 0 0 0 force 0 0 0 torque 0 0 0 radius 0.00217173428547011 invMass 11653.6328658045 timeStamp 0
BaseParticle id 47 indSpecies 0 position 0.0166009553553528 0.0388066255126087 0.00282860956822653 orientation 1 0 0 0 velocity 0 0 0 angularVelocity 0 0 0 force 0 0 0 torque 0 0 0 radius 0.0020956626709233 invMass 12969.3216816497 timeStamp 0
BaseParticle id 48 indSpecies 0 position 0.0596129184033601 0.0183183245190249 0.0912038071162963 orientation 1 0 0 0 velocity 0 0 0 angularVelocity 0 0 0 force 0 0 0 torque 0 0 0 radius 0.00213377432196839 invMass 12286.7194413758 timeStamp 0
BaseParticle id 49 indSpecies 0 position 0.0881592285929628 0.0331543695804157 0.00720295011326395 orientation 1 0 0 0 velocity 0 0 0 angularVelocity 0 0 0 force 0 0 0 torque 0 0 0 radius 0.00211856770053438 invMass 12553.1972981494 timeStamp 0
BaseParticle id 50 indSpecies 0 position 0.0451786094855716 0.0672104408338569 0.0551819820374418 orientation 1 0 0 0 velocity 0 0 0 angularVelocity 0 0 0 force 0 0 0 torque 0 0 0 radius 0.00209391636763627 invMass 13001.7975672809 timeStamp 0
BaseParticle id 51 indSpecies 0 position 0.0504512335635245 0.0210314038013747 0.0429588166596752 orientation 1 0 0 0 velocity 0 0 0 angularVelocity 0 0 0 force 0 0 0 torque 0 0 0 radius 0.00211226222528774 invMass 12665.9537503673 timeStamp 0
BaseParticle id 52 indSpecies 0 position 0.0760633111222989 0.0895836357124302 0.00326430303671927 orientation 1 0 0 0 velocity 0 0 0 angularVelocity 0 0 0 force 0 0 0 torque 0 0 0 radius 0.00208983962716861 invMass 13078.0355999429 timeStamp 0
BaseParticle id 53 indSpecies 0 position 0.0656577938556133 0.0429913051957346 0.0329004984042603 orientation 1 0 0 0 velocity 0 0 0 angularVelocity 0 0 0 force 0 0 0 torque 0 0 0 radius 0.00217097128359126 invMass 11665.9244183452 timeStamp 0
BaseParticle id 54 indSpecies 0 position 0.0149347147765246 0.0537468226125959 0.0813237801368127 orientation 1 0 0 0 velocity 0 0 0 angularVelocity 0 0 0 force 0 0 0 torque 0 0 0 radius 0.00216858118927125 invMass 11704.5396224644 timeStamp 0
BaseParticle id 55 indSpecies 0 position 0.0719495214783125 0.0957208542193092 0.0965816446611829 orientation 1 0 0 0 velocity 0 0 0 angularVelocity 0 0 0 force 0 0 0 torque 0 0 0 radius 0.00217059170689772 invMass 11672.0456350676 timeStamp 0
BaseParticle id 56 indSpecies 0 position 0.0104003962963816 0.0805637136282737 0.0654154038378825 orientation 1 0 0 0 velocity 0 0 0 angularVelocity 0 0 0 force 0 0 0 torque 0 0 0 radius 0.00208253740979808 invMass 13216.0891684407 timeStamp 0
BaseParticle id 57 indSpecies 0 position 0.0691056287203863 0.0792814079865055 0.0424296728871486 orientation 1 0 0 0 velocity 0 0 0 angularVelocity 0 0 0 force 0 0 0 torque 0 0 0 radius 0.00201035885251023 invMass 14691.3137967047 timeStamp 0
BaseParticle id 58 indSpecies 0 position 0.0849068330741424 0.092023832824059 0.0220323394778815 orientation 1 0 0 0 velocity 0 0 0 angularVelocity 0 0 0 force 0 0 0 torque 0 0 0 radius 0.00200174501161586 invMass 14881.7885770667 timeStamp 0
BaseParticle id 59 indSpecies 0 position 0.0863293279089692 0.0268780345778185 0.0426595558946398 orientation 1 0 0 0 velocity 0 0 0 angularVelocity 0 0 0 force 0 0 0 torque 0 0 0 radius 0.00201874479548575 invMass 14508.988449297 timeStamp 0
BaseParticle id 60 indSpecies 0 position 0.0654179626466539 0.044658502615375 0.000838929600232352 orientation 1 0 0 0 velocity 0 0 0 angularVelocity 0 0 0 force 0 0 0 torque 0 0 0 radius 0.00215708325612712 invMass 11892.7057001074 timeStamp 0
BaseParticle id 61 indSpecies 0 position 0.0436484353210326 0.0447910011328841 0.0377591434514531 orientation 1 0 0 0 velocity 0 0 0 angularVelocity 0 0 0 force 0 0 0 torque 0 0 0 radius 0.00205166448682415 invMass 13821.7289390097 timeStamp 0
BaseParticle id 62 indSpecies 0 position 0.0804572656001362 0.0434560947646796 0.0111988612346362 orientation 1 0 0 0 velocity 0 0 0 angularVelocity 0 0 0 force 0 0 0 torque 0 0 0 radius 0.00203530421735608 invMass 14157.7225615483 timeStamp 0
BaseParticle id 63 indSpecies 0 position 0.0373211025844132 0.00324110006611691 0.0396378131214177 orientation 1 0 0 0 velocity 0 0 0 angularVelocity 0 0 0 force 0 0 0 torque 0 0 0 radius 0.00202141951543097 invMass 14451.4702248311 timeStamp 0
BaseParticle id 64 indSpecies 0 position 0.0381129850278487 0.052633974652147 0.0904574840418459 orientation 1 0 0 0 velocity 0 0 0 angularVelocity 0 0 0 force 0 0 0 torque 0 0 0 radius 0.00208372657637769 invMass 13193.4751205676 timeStamp 0
BaseParticle id 65 indSpecies 0 position 0.0347447213393219 0.0224759218073674 0.0857333733833084 orientation 1 0 0 0 velocity 0 0 0 angularVelocity 0 0 0 force 0 0 0 torque 0 0 0 radius 0.00208316682403764 invMass 13204.1133417429 timeStamp 0
BaseParticle id 66 indSpecies 0 position 0.0749967138515816 0.037202677654845 0.0879528883956811 orientation 1 0 0 0 velocity 0 0 0 angularVelocity 0 0 0 force 0 0 0 torque 0 0 0 radius 0.00207024249330459 invMass 13452.9565441527 timeStamp 0
BaseParticle id 67 indSpecies 0 position 0.041319174560421 0.0862548099958759 0.0764502656865397 orientation 1 0 0 0 velocity 0 0 0 angularVelocity 0 0 0 force 0 0 0 torque 0 0 0 radius 0.00200481775331235 invMass 14813.4663939079 timeStamp 0
BaseParticle id 68 indSpecies 0 position 0.0509112105230696 0.00871099707790557 0.0891209776614597 orientation 1 0 0 0 velocity 0 0 0 angularVelocity 0 0 0 force 0 0 0 torque 0 0 0 radius 0.00204389835379375 invMass 13979.8822496364 timeStamp 0
BaseParticle id 69 indSpecies 0 position 0.0255437293783354 0.0121758572643847 0.0302552368210114 orientation 1 0 0 0 velocity 0 0 0 angularVelocity 0 0 0 force 0 0 0 torque 0 0 0 radius 0.00199795250568904 invMass 14966.6952079573 timeStamp 0
BaseParticle id 70 indSpecies 0 position 0.0831239288829976 0.0348887757073261 0.0138253928033399 orientation 1 0 0 0 velocity 0 0 0 angularVelocity 0 0 0 force 0 0 0 torque 0 0 0 radius 0.00199766178731049 invMass 14973.2304382448 timeStamp 0
BaseParticle id 71 indSpecies 0 position 0.0843299946893659 0.0399289263971812 0.0395847791437201 orientation 1 0 0 0 velocity 0 0 0 angularVelocity 0 0 0 force 0 0 0 torque 0 0 0 radius 0.00203646985863033 invMass 14133.4255435128 timeStamp 0
BaseParticle id 72 indSpecies 0 position 0.0926583688774534 0.0311073244259625 0.0671837767891737 orientation 1 0 0 0 velocity 0 0 0 angularVelocity 0 0 0 force 0 0 0 torque 0 0 0 radius 0.00205581436198666 invMass 13738.195992755 timeStamp 0
BaseParticle id 73 indSpecies 0 position 0.0230914911040184 0.0895743060954154 0.031421760347279 orientation 1 0 0 0 velocity 0 0 0 angularVelocity 0 0 0 force 0 0 0 torque 0 0 0 radius 0.00208158794118926 invMass 13234.1820666851 timeStamp 0
BaseParticle id 74 indSpecies 0 position 0.0979059847091269 0.0066555139546697 0.0246774849252054 orientation 1 0 0 0 velocity 0 0 0 angularVelocity 0 0 0 force 0 0 0 torque 0 0 0 radius 0.00206396752877485 invMass 13576.0307666527 timeStamp 0
BaseParticle id 75 indSpecies 0 position 0.039623502232485 0.0173372368166808 0.0539767896253832 orientation 1 0 0 0 velocity 0 0 0 angularVelocity 0 0 0 force 0 0 0 torque 0 0 0 radius 0.00203871409880623 invMass 14086.8021873984 timeStamp 0
BaseParticle id 76 indSpecies 0 position 0.0631270088598812 0.0152771792232271 0.0946795410526176 orientation 1 0 0 0 velocity 0 0 0 angularVelocity 0 0 0 force 0 0 0 torque 0 0 0 radius 0.00203151562567676 invMass 14237.0789608792 timeStamp 0
BaseParticle id 77 indSpecies 0 position 0.0635616950098782 0.00954264774029828 0.0716686687696086 orientation 1 0 0 0 velocity 0 0 0 angularVelocity 0 0 0 force 0 0 0 torque 0 0 0 radius 0.00204904731462514 invMass 13874.7585605987 timeStamp 0
BaseParticle id 78 indSpecies 0 position 0.0735978252500316 0.0406718544283213 0.048650363787403 orientation 1 0 0 0 velocity 0 0 0 angularVelocity 0 0 0 force 0 0 0 torque 0 0 0 radius 0.00202612140362653 invMass 14351.0937609675 timeStamp 0
BaseParticle id 79 indSpecies 0 position 0.021571674177822 0.0403467422906805 0.0508680276098959 orientation 1 0 0 0 velocity 0 0 0 angularVelocity 0 0 0 force 0 0 0 torque 0 0 0 radius 0.00206137927120254 invMass 13627.2329924938 timeStamp 0
BaseParticle id 80 indSpecies 0 position 0.0352701878777983 0.0589631102430047 0.009146822142278 orientation 1 0 0 0 velocity 0 0 0 angularVelocity 0 0 0 force 0 0 0 torque 0 0 0 radius 0.0020619274125253 invMass 13616.3679194716 timeStamp 0
BaseParticle id 81 indSpecies 0 position 0.0722255102617429 0.0287428714067276 0.0147158287328521 orientation 1 0 0 0 velocity 0 0 0 angularVelocity 0 0 0 force 0 0 0 torque 0 0 0 radius 0.00203161424967711 invMass 14235.0056595338 timeStamp 0
BaseParticle id 82 indSpecies 0 position 0.0708979195254874 0.0135726919271306 0.0795493101891602 orientation 1 0 0 0 velocity 0 0 0 angularVelocity 0 0 0 force 0 0 0 torque 0 0 0 radius 0.00202953921798617 invMass 14278.7125730299 timeStamp 0
BaseParticle id 83 indSpecies 0 position 0.066649111391372 0.0545839018611388 0.0942253700511294 orientation 1 0 0 0 velocity 0 0 0 angularVelocity 0 0 0 force 0 0 0 torque 0 0 0 radius 0.0019980974668899 invMass 14963.4379603799 timeStamp 0
BaseParticle id 84 indSpecies 0 position 0.0147536236655399 0.0518573951424496 0.0617560579797662 orientation 1 0 0 0 velocity 0 0 0 angularVelocity 0 0 0 force 0 0 0 torque 0 0 0 radius 0.00204936804625158 invMass 13868.2452686467 timeStamp 0
BaseParticle id 85 indSpecies 0 position 0.0892099632050749 0.097151491886795 0.0797418597342988 orientation 1 0 0 0 velocity 0 0 0 angularVelocity 0 0 0 force 0 0 0 torque 0 0 0 radius 0.00205690584857365 invMass 13716.3372853818 timeStamp 0
BaseParticle id 86 indSpecies 0 position 0.0445063640880339 0.019185031094416 0.0109827281804916 orientation 1 0 0 0 velocity 0 0 0 angularVelocity 0 0 0 force 0 0 0 torque 0 0 0 radius 0.00202533933065588 invMass 14367.7249548316 timeStamp 0
BaseParticle id 87 indSpecies 0 position 0.0652794113706058 0.00750368944601743 0.0134619472422991 orientation 1 0 0 0 velocity 0 0 0 angularVelocity 0 0 0 force 0 0 0 torque 0 0 0 radius 0.00192182644407834 invMass 16816.6273412433 timeStamp 0
BaseParticle id 88 indSpecies 0 position 0.0507500119034666 0.0743427677318987 0.0323728059117004 orientation 1 0 0 0 velocity 0 0 0 angularVelocity 0 0 0 force 0 0 0 torque 0 0 0 radius 0.0019507408837166 invMass 16079.8738371036 timeStamp 0
BaseParticle id 89 indSpecies 0 position 0.0571930604454195 0.0712844222120155 0.0180153228174752 orientation 1 0 0 0 velocity 0 0 0 angularVelocity 0 0 0 force 0 0 0 torque 0 0 0 radius 0.00196906773691506 invMass 15635.0554568888 timeStamp 0
BaseParticle id 90 indSpecies 0 position 0.0917371995824043 0.0726231762463011 0.00830354605959398 orientation 1 0 0 0 velocity 0 0 0 angularVelocity 0 0 0 force 0 0 0 torque 0 0 0 radius 0.0019157984938014 invMass 16975.8649894767 timeStamp 0
BaseParticle id 91 indSpecies 0 position 0.0683081891682854 0.0785277098617258 0.0736079634413049 orientation 1 0 0 0 velocity 0 0 0 angularVelocity 0 0 0 force 0 0 0 torque 0 0 0 radius 0.00192152280274201 invMass 16824.6007519026 timeStamp 0
BaseParticle id 92 indSpecies 0 position 0.0205061550061161 0.0922084409816112 0.0384345941818928 orientation 1 0 0 0 velocity 0 0 0 angularVelocity 0 0 0 force 0 0 0 torque 0 0 0 radius 0.00194254536667888 invMass 16284.2546210655 timeStamp 0
BaseParticle id 93 indSpecies 0 position 0.0239813406728382 0.060986151116913 0.0568431507266656 orientation 1 0 0 0 velocity 0 0 0 angularVelocity 0 0 0 force 0 0 0 torque 0 0 0 radius 0.00198702563994131 invMass 15214.9658389528 timeStamp 0
BaseParticle id 94 indSpecies 0 position 0.0591978695623597 0.0999761773273571 0.0230888765090249 orientation 1 0 0 0 velocity 0 0 0 angularVelocity 0 0 0 force 0 0 0 torque 0 0 0 radius 0.00191776427524584 invMass 16923.7157559111 timeStamp 0
BaseParticle id 95 indSpecies 0 position 0.00893305846589334 0.0190947039806334 0.0665667227780756 orientation 1 0 0 0 velocity 0 0 0 angularVelocity 0 0 0 force 0 0 0 torque 0 0 0 radius 0.00197737495876776 invMass 15438.8271522139 timeStamp 0
BaseParticle id 96 indSpecies 0 position 0.020453288387085 0.0748745822581699 0.0673992759851746 orientation 1 0 0 0 velocity 0 0 0 angularVelocity 0 0 0 force 0 0 0 torque 0 0 0 radius 0.00199198039935052 invMass 15101.7130110877 timeStamp 0
BaseParticle id 97 indSpecies 0 position 0.0159315271154684 0.0699749956187093 0.0115207824748747 orientation 1 0 0 0 velocity 0 0 0 angularVelocity 0 0 0 force 0 0 0 torque 0 0 0 radius 0.00193690697657178 invMass 16426.8807601778 timeStamp 0
BaseParticle id 98 indSpecies 0 position 0.00184999294406734 0.0271463905208312 0.0226841958959734 orientation 1 0 0 0 velocity 0 0 0 angularVelocity 0 0 0 force 0 0 0 torque 0 0 0 radius 0.00194327130284974 invMass 16266.0118044998 timeStamp 0
BaseParticle id 99 indSpecies 0 position 0.0591531655200262 0.0104750079005258 0.0260426190439215 orientation 1 0 0 0 velocity 0 0 0 angularVelocity 0 0 0 force 0 0 0 torque 0 0 0 radius 0.00196336974602442 invMass 15771.5766623143 timeStamp 0
BaseParticle id 100 indSpecies 0 position 0.0482796406855065 0.0747485235568615 0.0658381465209293 orientation 1 0 0 0 velocity 0 0 0 angularVelocity 0 0 0 force 0 0 0 torque 0 0 0 radius 0.00193340364888115 invMass 16516.3391941554 timeStamp 0
BaseParticle id 101 indSpecies 0 position 0.0975595579505344 0.099691831972737 0.0891284950178783 orientation 1 0 0 0 velocity 0 0 0 angularVelocity 0 0 0 force 0 0 0 torque 0 0 0 radius 0.00195044899652585 invMass 16087.0940386599 timeStamp 0
BaseParticle id 102 indSpecies 0 position 0.0667317665491889 0.0897174457183877 0.0876845618824618 orientation 1 0 0 0 velocity 0 0 0 angularVelocity 0 0 0 force 0 0 0 torque 0 0 0 radius 0.00195868638285296 invMass 15884.9803858762 timeStamp 0
BaseParticle id 103 indSpecies 0 position 0.00694298110255693 0.00510547160626809 0.0640028805807206 orientation 1 0 0 0 velocity 0 0 0 angularVelocity 0 0 0 force 0 0 0 torque 0 0 0 radius 0.00195105473794402 invMass 16072.1150728496 timeStamp 0
BaseParticle id 104 indSpecies 0 position 0.0517880295852311 0.0118161669822259 0.0172743725429528 orientation 1 0 0 0 velocity 0 0 0 angularVelocity 0 0 0 force 0 0 0 torque 0 0 0 radius 0.0019777686913107 invMass 15429.608341199 timeStamp 0
BaseParticle id 105 indSpecies 0 position 0.0427312113878026 0.0504525359250116 0.00233632158270449 orientation 1 0 0 0 velocity 0 0 0 angularVelocity 0 0 0 force 0 0 0 torque 0 0 0 radius 0.00196936398872507 invMass 15628.0005649129 timeStamp 0
BaseParticle id 106 indSpecies 0 position 0.0599255910516478 0.0582676798493902 0.0672434111430837 orientation 1 0 0 0 velocity 0 0 0 angularVelocity 0 0 0 force 0 0 0 torque 0 0 0 radius 0.00191921135565573 invMass 16885.4632986371 timeStamp 0
BaseParticle id 107 indSpecies 0 position 0.0211499512929935 0.0128865970178632 0.086951859959446 orientation 1 0 0 0 velocity 0 0 0 angularVelocity 0 0 0 force 0 0 0 torque 0 0 0 radius 0.00192918728023367 invMass 16624.8687604849 timeStamp 0
BaseParticle id 108 indSpecies 0 position 0.0693970971094471 0.0958932214454811 0.0613530076468801 orientation 1 0 0 0 velocity 0 0 0 angularVelocity 0 0 0 force 0 0 0 torque 0 0 0 radius 0.00193816607078766 invMass 16394.8872832867 timeStamp 0
BaseParticle id 109 indSpecies 0 position 0.00838723284342584 0.0230292574288051 0.0829352423707626 orientation 1 0 0 0 velocity 0 0 0 angularVelocity 0 0 0 force 0 0 0 torque 0 0 0 radius 0.00190969231127131 invMass 17139.2256397031 timeStamp 0
BaseParticle id 110 indSpecies 0 position 0.0168108739733595 0.0397501292268279 0.0417013147457491 orientation 1 0 0 0 velocity 0 0 0 angularVelocity 0 0 0 force 0 0 0 torque 0 0 0 radius 0.00191183321826753 invMass 17081.7116060403 timeStamp 0
BaseParticle id 111 indSpecies 0 position 0.0951110308104092 0.0702510657066004 0.0624807233340286 orientation 1 0 0 0 velocity 0 0 0 angularVelocity 0 0 0 force 0 0 0 torque 0 0 0 radius 0.00190932482651181 invMass 17149.1238243072 timeStamp 0
BaseParticle id 112 indSpecies 0 position 0.0360272755510851 0.0517899477372039 0.0217636006681587 orientation 1 0 0 0 velocity 0 0 0 angularVelocity 0 0 0 force 0 0 0 torque 0 0 0 radius 0.00196126916212998 invMass 15822.3065917534 timeStamp 0