MercuryDPM 0.14 name PSDSelfTest revision 737d820 repository https://bitbucket.org/mercurydpm/mercurydpm.git
dataFile    fileType ONE_FILE saveCount 10 counter 22 lastSavedTimeStep 201
fStatFile   fileType ONE_FILE saveCount 20 counter 12 lastSavedTimeStep 201
eneFile     fileType ONE_FILE saveCount 20 counter 12 lastSavedTimeStep 201
restartFile fileType ONE_FILE saveCount 20 counter 12 lastSavedTimeStep 201
statFile    fileType ONE_FILE saveCount 20 counter 0
interactionFile fileType NO_FILE saveCount 0 counter 0
xMin 0 xMax 0.1 yMin 0 yMax 0.1 zMin 0 zMax 0.1
timeStep 0.0001 time 0.0200999999999999 ntimeSteps 201 timeMax 0.02
systemDimensions 3 particleDimensions 3 gravity 0 0 0 backgroundDrag 0 writeVTK 0 NO_FILE NO_FILE 0 0 0 0 0 random  0 1103515245 12345 1073741824 607 273 784607267
Species 1
LinearViscoelasticSpecies id 0 density 2000 stiffness 10000 dissipation 0
Walls 0
Boundaries 1
CubeInsertionBoundary id 0 maxFailed 1 massInserted 0.0754016412183893 volumeInserted 3.77008206091945e-05 numberOfParticlesInserted 7128 isActivated 1 psdCount 1 psd 47 0.000387645 0 0.000405195 0.00641963 0.000423541 0.0157881 0.000442717 0.0289129 0.000462761 0.0475877 0.000483713 0.0702285 0.000505613 0.096661 0.000528505 0.12752 0.000552434 0.162984 0.000577445 0.199952 0.00060359 0.236205 0.000630917 0.270216 0.000659483 0.300988 0.000689341 0.328802 0.000720551 0.354678 0.000753175 0.379335 0.000787275 0.404133 0.000822919 0.430189 0.000860177 0.458372 0.000899122 0.489708 0.000939831 0.524177 0.000982382 0.561866 0.00102686 0.602098 0.00107335 0.643887 0.00112195 0.686123 0.00117275 0.727694 0.00122584 0.767495 0.00128134 0.804712 0.00133936 0.838663 0.0014 0.868961 0.00146338 0.895445 0.00152964 0.918157 0.00159889 0.937242 0.00167128 0.952947 0.00174695 0.965604 0.00182605 0.975541 0.00190872 0.983136 0.00199514 0.988764 0.00208547 0.992798 0.00217989 0.995601 0.00227859 0.997454 0.00238175 0.998635 0.00248959 0.999345 0.0026023 0.999741 0.00272012 0.999939 0.00284328 0.999995 0.00297201 1 initialVolume 0 samplingInterval 0 variableCumulativeVolumeFlowRate 0 particleToCopy 1 BaseParticle id 0 indSpecies 0 position 0 0 0 orientation 1 0 0 0 velocity 0 0 0 angularVelocity 0 0 0 force 0 0 0 torque 0 0 0 radius 1 invMass 1 posMin 0 0 0 posMax 0.1 0.1 0.1 velMin 0 0 0 velMax 0 0 0
Particles 7128
BaseParticle id 0 indSpecies 0 position 0.0462818009347824 0.0451551026244135 0.084762122589385 orientation 1 0 0 0 velocity 0 0 0 angularVelocity 0 0 0 force 0 0 0 torque 0 0 0 radius 0.00078803493953921 invMass 243918.631420527
BaseParticle id 1 indSpecies 0 position 0.0413787151301478 0.00993150145753146 0.0771077505526061 orientation 1 0 0 0 velocity 0 0 0 angularVelocity 0 0 0 force 0 0 0 torque 0 0 0 radius 0.000893596411729288 invMass 167285.056160097
BaseParticle id 2 indSpecies 0 position 0.0595721126910559 0.0926644036614668 0.0072714161991408 orientation 1 0 0 0 velocity 0 0 0 angularVelocity 0 0 0 force 0 0 0 torque 0 0 0 radius 0.00083193634521506 invMass 207305.63208742
BaseParticle id 3 indSpecies 0 position 0.0193444608530547 0.0803075776618835 0.0214465732486485 orientation 1 0 0 0 velocity 0 0 0 angularVelocity 0 0 0 force 0 0 0 torque 0 0 0 radius 0.00138207053870872 invMass 45215.8570448086
BaseParticle id 4 indSpecies 0 position 0.029164158246327 0.0651623650778436 0.0306274980952707 orientation 1 0 0 0 velocity 0 0 0 angularVelocity 0 0 0 force 0 0 0 torque 0 0 0 radius 0.00104164159508685 invMass 105615.206682408
BaseParticle id 5 indSpecies 0 position 0.020833188648491 0.0969839190161005 0.0537878006195763 orientation 1 0 0 0 velocity 0 0 0 angularVelocity 0 0 0 force 0 0 0 torque 0 0 0 radius 0.000592077174894202 invMass 575104.066083149
BaseParticle id 6 indSpecies 0 position 0.0965598651240022 0.0187199103471638 0.0751426060915528 orientation 1 0 0 0 velocity 0 0 0 angularVelocity 0 0 0 force 0 0 0 torque 0 0 0 radius 0.000448621653552141 invMass 1322028.14087489
BaseParticle id 7 indSpecies 0 position 0.0128699160061126 0.0306166582455703 0.0591826113321049 orientation 1 0 0 0 velocity 0 0 0 angularVelocity 0 0 0 force 0 0 0 torque 0 0 0 radius 0.00142141432666827 invMass 41564.190789752
BaseParticle id 8 indSpecies 0 position 0.0772737262050866 0.0846877715692969 0.0788350858922721 orientation 1 0 0 0 velocity 0 0 0 angularVelocity 0 0 0 force 0 0 0 torque 0 0 0 radius 0.000809712346292989 invMass 224848.042502639
BaseParticle id 9 indSpecies 0 position 0.0890366296386005 0.0611222965073564 0.0680974906607554 orientation 1 0 0 0 velocity 0 0 0 angularVelocity 0 0 0 force 0 0 0 torque 0 0 0 radius 0.000526536183717616 invMass 817705.145992504
BaseParticle id 10 indSpecies 0 position 0.0895757810309755 0.0425251628807512 0.07872364187732 orientation 1 0 0 0 velocity 0 0 0 angularVelocity 0 0 0 force 0 0 0 torque 0 0 0 radius 0.0012759975743156 invMass 57455.5317869115
BaseParticle id 11 indSpecies 0 position 0.0440465642660423 0.00549294957379536 0.00311985714070513 orientation 1 0 0 0 velocity 0 0 0 angularVelocity 0 0 0 force 0 0 0 torque 0 0 0 radius 0.000591251179648109 invMass 577517.746691459
BaseParticle id 12 indSpecies 0 position 0.0816598897039333 0.0772353886838673 0.0455273494631729 orientation 1 0 0 0 velocity 0 0 0 angularVelocity 0 0 0 force 0 0 0 torque 0 0 0 radius 0.00103548521156757 invMass 107510.205633832
BaseParticle id 13 indSpecies 0 position 0.0810699480762054 0.0967712630547851 0.058317498808431 orientation 1 0 0 0 velocity 0 0 0 angularVelocity 0 0 0 force 0 0 0 torque 0 0 0 radius 0.000548291911840266 invMass 724178.916565372
BaseParticle id 14 indSpecies 0 position 0.0256943308509008 0.0332247916299619 0.00975970969557789 orientation 1 0 0 0 velocity 0 0 0 angularVelocity 0 0 0 force 0 0 0 torque 0 0 0 radius 0.000703741715477954 invMass 342484.963591434
BaseParticle id 15 indSpecies 0 position 0.0690963677418452 0.048267025548716 0.076193224195211 orientation 1 0 0 0 velocity 0 0 0 angularVelocity 0 0 0 force 0 0 0 torque 0 0 0 radius 0.000989431874758207 invMass 123232.058641133
BaseParticle id 16 indSpecies 0 position 0.0430958077841477 0.0324626619625253 0.00506626339157461 orientation 1 0 0 0 velocity 0 0 0 angularVelocity 0 0 0 force 0 0 0 torque 0 0 0 radius 0.00156809475317968 invMass 30957.4008041328
BaseParticle id 17 indSpecies 0 position 0.0444340212788116 0.0262642771692348 0.0849237541808526 orientation 1 0 0 0 velocity 0 0 0 angularVelocity 0 0 0 force 0 0 0 torque 0 0 0 radius 0.000503553565681951 invMass 934855.243573738
BaseParticle id 18 indSpecies 0 position 0.0625728522775948 0.0757689981947011 0.0841023461109937 orientation 1 0 0 0 velocity 0 0 0 angularVelocity 0 0 0 force 0 0 0 torque 0 0 0 radius 0.000776184310569484 invMass 255262.380746458
BaseParticle id 19 indSpecies 0 position 0.00570846078385743 0.00911323026836548 0.0444778516474386 orientation 1 0 0 0 velocity 0 0 0 angularVelocity 0 0 0 force 0 0 0 torque 0 0 0 radius 0.00078923629910494 invMass 242806.462008046
BaseParticle id 20 indSpecies 0 position 0.025231956760183 0.0747495385122024 0.084527385714904 orientation 1 0 0 0 velocity 0 0 0 angularVelocity 0 0 0 force 0 0 0 torque 0 0 0 radius 0.000771268747627869 invMass 260174.179526078
BaseParticle id 21 indSpecies 0 position 0.0783926210567424 0.0121918775959016 0.00755647597130715 orientation 1 0 0 0 velocity 0 0 0 angularVelocity 0 0 0 force 0 0 0 torque 0 0 0 radius 0.000829141794452641 invMass 209408.821957991
BaseParticle id 22 indSpecies 0 position 0.0441164535990763 0.0472578531622348 0.0618409596738955 orientation 1 0 0 0 velocity 0 0 0 angularVelocity 0 0 0 force 0 0 0 torque 0 0 0 radius 0.000556836628436553 invMass 691350.067180626
BaseParticle id 23 indSpecies 0 position 0.0864861215590629 0.0102355983944278 0.0832432083010271 orientation 1 0 0 0 velocity 0 0 0 angularVelocity 0 0 0 force 0 0 0 torque 0 0 0 radius 0.00122828002465687 invMass 64415.328798502
BaseParticle id 24 indSpecies 0 position 0.0534517348246167 0.00837098461727521 0.0522019398843852 orientation 1 0 0 0 velocity 0 0 0 angularVelocity 0 0 0 force 0 0 0 torque 0 0 0 radius 0.00059312296180015 invMass 572067.377981828
BaseParticle id 25 indSpecies 0 position 0.0738148986605789 0.0559428380281266 0.0700997407826597 orientation 1 0 0 0 velocity 0 0 0 angularVelocity 0 0 0 force 0 0 0 torque 0 0 0 radius 0.00101002709287097 invMass 115846.341965211
BaseParticle id 26 indSpecies 0 position 0.0436748553592015 0.0597098215858361 0.057567957176298 orientation 1 0 0 0 velocity 0 0 0 angularVelocity 0 0 0 force 0 0 0 torque 0 0 0 radius 0.00126988779732931 invMass 58288.8309497993
BaseParticle id 27 indSpecies 0 position 0.0881635907216337 0.00587385044817452 0.0252225785281299 orientation 1 0 0 0 velocity 0 0 0 angularVelocity 0 0 0 force 0 0 0 torque 0 0 0 radius 0.000547941884867013 invMass 725567.626504851
BaseParticle id 28 indSpecies 0 position 0.0270183332944118 0.0154171871809129 0.007775785487354 orientation 1 0 0 0 velocity 0 0 0 angularVelocity 0 0 0 force 0 0 0 torque 0 0 0 radius 0.000966096653535059 invMass 132379.172428589
BaseParticle id 29 indSpecies 0 position 0.0338039195781537 0.0327630155414687 0.0586293312174926 orientation 1 0 0 0 velocity 0 0 0 angularVelocity 0 0 0 force 0 0 0 torque 0 0 0 radius 0.000639593386434233 invMass 456214.938502378
BaseParticle id 30 indSpecies 0 position 0.023198932108284 0.0758287987896904 0.0523946741107901 orientation 1 0 0 0 velocity 0 0 0 angularVelocity 0 0 0 force 0 0 0 torque 0 0 0 radius 0.0011130476127514 invMass 86564.5682925542
BaseParticle id 31 indSpecies 0 position 0.0151729742855085 0.0544205111875939 0.0921347505486247 orientation 1 0 0 0 velocity 0 0 0 angularVelocity 0 0 0 force 0 0 0 torque 0 0 0 radius 0.000683665488484722 invMass 373551.44729292
BaseParticle id 32 indSpecies 0 position 0.0539809540342717 0.0747160042871572 0.0531534103181647 orientation 1 0 0 0 velocity 0 0 0 angularVelocity 0 0 0 force 0 0 0 torque 0 0 0 radius 0.00195244935294723 invMass 16037.69921535
BaseParticle id 33 indSpecies 0 position 0.0905490531674129 0.0836178721081299 0.0117204199435931 orientation 1 0 0 0 velocity 0 0 0 angularVelocity 0 0 0 force 0 0 0 torque 0 0 0 radius 0.000899111432113337 invMass 164225.591928658
BaseParticle id 34 indSpecies 0 position 0.0158523266987388 0.0970729528953573 0.0969606445199245 orientation 1 0 0 0 velocity 0 0 0 angularVelocity 0 0 0 force 0 0 0 torque 0 0 0 radius 0.00114198164091584 invMass 80150.0926950644
BaseParticle id 35 indSpecies 0 position 0.0569164710520613 0.0588207174476043 0.0884957535299512 orientation 1 0 0 0 velocity 0 0 0 angularVelocity 0 0 0 force 0 0 0 torque 0 0 0 radius 0.000566185590895095 invMass 657665.344114162
BaseParticle id 36 indSpecies 0 position 0.0117705129908672 0.0417646053789513 0.0800067577697274 orientation 1 0 0 0 velocity 0 0 0 angularVelocity 0 0 0 force 0 0 0 torque 0 0 0 radius 0.000597546579258324 invMass 559456.213151401
BaseParticle id 37 indSpecies 0 position 0.0458044878711882 0.00235067689572397 0.0956917095038186 orientation 1 0 0 0 velocity 0 0 0 angularVelocity 0 0 0 force 0 0 0 torque 0 0 0 radius 0.00179233725553633 invMass 20731.0929400187
BaseParticle id 38 indSpecies 0 position 0.01539849274289 0.010402804230896 0.0730118187395746 orientation 1 0 0 0 velocity 0 0 0 angularVelocity 0 0 0 force 0 0 0 torque 0 0 0 radius 0.000966913520745153 invMass 132043.946351664
BaseParticle id 39 indSpecies 0 position 0.00309774744967208 0.0418329746072805 0.0686011585699383 orientation 1 0 0 0 velocity 0 0 0 angularVelocity 0 0 0 force 0 0 0 torque 0 0 0 radius 0.000706990771582848 invMass 337784.844615682
BaseParticle id 40 indSpecies 0 position 0.0228980703997444 0.0935104752019882 0.0486952222430192 orientation 1 0 0 0 velocity 0 0 0 angularVelocity 0 0 0 force 0 0 0 torque 0 0 0 radius 0.00128941700574434 invMass 55680.2547937595
BaseParticle id 41 indSpecies 0 position 0.0128010361336162 0.0439465037137768 0.0605432332860834 orientation 1 0 0 0 velocity 0 0 0 angularVelocity 0 0 0 force 0 0 0 torque 0 0 0 radius 0.000553252514822283 invMass 704873.534950725
BaseParticle id 42 indSpecies 0 position 0.0684156378093961 0.0893831915320985 0.0970635949661363 orientation 1 0 0 0 velocity 0 0 0 angularVelocity 0 0 0 force 0 0 0 torque 0 0 0 radius 0.00101587358411505 invMass 113857.696362738
BaseParticle id 43 indSpecies 0 position 0.0833900956591683 0.0276064363982469 0.0539636656139384 orientation 1 0 0 0 velocity 0 0 0 angularVelocity 0 0 0 force 0 0 0 torque 0 0 0 radius 0.00167131197761456 invMass 25568.7100470149
BaseParticle id 44 indSpecies 0 position 0.0169700750923063 0.0961445872707809 0.0791264746532529 orientation 1 0 0 0 velocity 0 0 0 angularVelocity 0 0 0 force 0 0 0 torque 0 0 0 radius 0.000561062075499645 invMass 675847.409059798
BaseParticle id 45 indSpecies 0 position 0.06034812148628 0.029246981694133 0.00254601062969675 orientation 1 0 0 0 velocity 0 0 0 angularVelocity 0 0 0 force 0 0 0 torque 0 0 0 radius 0.0011941841342176 invMass 70091.8470065728
BaseParticle id 46 indSpecies 0 position 0.0190150813022488 0.0242646593374529 0.0213247085722865 orientation 1 0 0 0 velocity 0 0 0 angularVelocity 0 0 0 force 0 0 0 torque 0 0 0 radius 0.000868677034747378 invMass 182098.502528406
BaseParticle id 47 indSpecies 0 position 0.0166009553553528 0.0388066255126087 0.00282860956822653 orientation 1 0 0 0 velocity 0 0 0 angularVelocity 0 0 0 force 0 0 0 torque 0 0 0 radius 0.00107406965283896 invMass 96334.9900615336
BaseParticle id 48 indSpecies 0 position 0.0698103582767673 0.0918470906169647 0.0991142840132916 orientation 1 0 0 0 velocity 0 0 0 angularVelocity 0 0 0 force 0 0 0 torque 0 0 0 radius 0.000532123769600532 invMass 792215.650981128
BaseParticle id 49 indSpecies 0 position 0.0183183245190249 0.0912038071162963 0.0513815605534412 orientation 1 0 0 0 velocity 0 0 0 angularVelocity 0 0 0 force 0 0 0 torque 0 0 0 radius 0.000757558907356328 invMass 274556.777021479
BaseParticle id 50 indSpecies 0 position 0.0331543695804157 0.00720295011326395 0.0691402485881557 orientation 1 0 0 0 velocity 0 0 0 angularVelocity 0 0 0 force 0 0 0 torque 0 0 0 radius 0.000551638372854087 invMass 711079.222194774
BaseParticle id 51 indSpecies 0 position 0.0672104408338569 0.0551819820374418 0.0871216303788855 orientation 1 0 0 0 velocity 0 0 0 angularVelocity 0 0 0 force 0 0 0 torque 0 0 0 radius 0.000683781852989056 invMass 373360.769234155
BaseParticle id 52 indSpecies 0 position 0.0210314038013747 0.0429588166596752 0.0380378273892795 orientation 1 0 0 0 velocity 0 0 0 angularVelocity 0 0 0 force 0 0 0 torque 0 0 0 radius 0.000993737959825671 invMass 121637.015510284
BaseParticle id 53 indSpecies 0 position 0.0895836357124302 0.00326430303671927 0.071450651184236 orientation 1 0 0 0 velocity 0 0 0 angularVelocity 0 0 0 force 0 0 0 torque 0 0 0 radius 0.00050177278598905 invMass 944843.946647001
BaseParticle id 54 indSpecies 0 position 0.0429913051957346 0.0329004984042603 0.0937884705199036 orientation 1 0 0 0 velocity 0 0 0 angularVelocity 0 0 0 force 0 0 0 torque 0 0 0 radius 0.000879462711272948 invMass 175480.597310738
BaseParticle id 55 indSpecies 0 position 0.0537468226125959 0.0813237801368127 0.0483560759123824 orientation 1 0 0 0 velocity 0 0 0 angularVelocity 0 0 0 force 0 0 0 torque 0 0 0 radius 0.000650857092831439 invMass 432936.766315782
BaseParticle id 56 indSpecies 0 position 0.0957208542193092 0.0965816446611829 0.0728241943076028 orientation 1 0 0 0 velocity 0 0 0 angularVelocity 0 0 0 force 0 0 0 torque 0 0 0 radius 0.00100229099829177 invMass 118549.548768732
BaseParticle id 57 indSpecies 0 position 0.0805637136282737 0.0654154038378825 0.0629404888833496 orientation 1 0 0 0 velocity 0 0 0 angularVelocity 0 0 0 force 0 0 0 torque 0 0 0 radius 0.00127352245576422 invMass 57791.1815065983
BaseParticle id 58 indSpecies 0 position 0.0792814079865055 0.0424296728871486 0.0177141948438117 orientation 1 0 0 0 velocity 0 0 0 angularVelocity 0 0 0 force 0 0 0 torque 0 0 0 radius 0.00138355863886654 invMass 45070.1168248346
BaseParticle id 59 indSpecies 0 position 0.092023832824059 0.0220323394778815 0.0250499933724757 orientation 1 0 0 0 velocity 0 0 0 angularVelocity 0 0 0 force 0 0 0 torque 0 0 0 radius 0.00125023861702418 invMass 61080.511829549
BaseParticle id 60 indSpecies 0 position 0.0268780345778185 0.0426595558946398 0.0212833483505218 orientation 1 0 0 0 velocity 0 0 0 angularVelocity 0 0 0 force 0 0 0 torque 0 0 0 radius 0.000450538284821909 invMass 1305227.72687487
BaseParticle id 61 indSpecies 0 position 0.044658502615375 0.000838929600232352 0.0097495225167372 orientation 1 0 0 0 velocity 0 0 0 angularVelocity 0 0 0 force 0 0 0 torque 0 0 0 radius 0.00064271326202418 invMass 449603.424803503
BaseParticle id 62 indSpecies 0 position 0.0447910011328841 0.0377591434514531 0.0784028301216636 orientation 1 0 0 0 velocity 0 0 0 angularVelocity 0 0 0 force 0 0 0 torque 0 0 0 radius 0.00150688127306834 invMass 34885.4466703995
BaseParticle id 63 indSpecies 0 position 0.0434560947646796 0.0111988612346362 0.0133462469900528 orientation 1 0 0 0 velocity 0 0 0 angularVelocity 0 0 0 force 0 0 0 torque 0 0 0 radius 0.000664544310611019 invMass 406733.142706481
BaseParticle id 64 indSpecies 0 position 0.00324110006611691 0.0396378131214177 0.00145871201394245 orientation 1 0 0 0 velocity 0 0 0 angularVelocity 0 0 0 force 0 0 0 torque 0 0 0 radius 0.00141215406415402 invMass 42387.2415023359
BaseParticle id 65 indSpecies 0 position 0.052633974652147 0.0904574840418459 0.0574903735355564 orientation 1 0 0 0 velocity 0 0 0 angularVelocity 0 0 0 force 0 0 0 torque 0 0 0 radius 0.00106319853367465 invMass 99320.3607030931
BaseParticle id 66 indSpecies 0 position 0.0224759218073674 0.0857333733833084 0.024645022093649 orientation 1 0 0 0 velocity 0 0 0 angularVelocity 0 0 0 force 0 0 0 torque 0 0 0 radius 0.00107927379341966 invMass 94948.1483477171
BaseParticle id 67 indSpecies 0 position 0.037202677654845 0.0879528883956811 0.0795857600126548 orientation 1 0 0 0 velocity 0 0 0 angularVelocity 0 0 0 force 0 0 0 torque 0 0 0 radius 0.00104064427404462 invMass 105919.152757098
BaseParticle id 68 indSpecies 0 position 0.0862548099958759 0.0764502656865397 0.0507433782790384 orientation 1 0 0 0 velocity 0 0 0 angularVelocity 0 0 0 force 0 0 0 torque 0 0 0 radius 0.000664583754290906 invMass 406660.727004357
BaseParticle id 69 indSpecies 0 position 0.00871099707790557 0.0891209776614597 0.0903208902195833 orientation 1 0 0 0 velocity 0 0 0 angularVelocity 0 0 0 force 0 0 0 torque 0 0 0 radius 0.00142774817922938 invMass 41013.4733188001
BaseParticle id 70 indSpecies 0 position 0.0121758572643847 0.0302552368210114 0.00694192675227119 orientation 1 0 0 0 velocity 0 0 0 angularVelocity 0 0 0 force 0 0 0 torque 0 0 0 radius 0.000517035125317237 invMass 863617.133880125
BaseParticle id 71 indSpecies 0 position 0.0348887757073261 0.0138253928033399 0.0435838821869494 orientation 1 0 0 0 velocity 0 0 0 angularVelocity 0 0 0 force 0 0 0 torque 0 0 0 radius 0.00152872740704807 invMass 33411.1358306887
BaseParticle id 72 indSpecies 0 position 0.0399289263971812 0.0395847791437201 0.0985119469477684 orientation 1 0 0 0 velocity 0 0 0 angularVelocity 0 0 0 force 0 0 0 torque 0 0 0 radius 0.000794029208580943 invMass 238436.072717266
BaseParticle id 73 indSpecies 0 position 0.0311073244259625 0.0671837767891737 0.0753533275096181 orientation 1 0 0 0 velocity 0 0 0 angularVelocity 0 0 0 force 0 0 0 torque 0 0 0 radius 0.00125190053035138 invMass 60837.5792226281
BaseParticle id 74 indSpecies 0 position 0.0895743060954154 0.031421760347279 0.0058011082878326 orientation 1 0 0 0 velocity 0 0 0 angularVelocity 0 0 0 force 0 0 0 torque 0 0 0 radius 0.000729928631956118 invMass 306930.605803667
BaseParticle id 75 indSpecies 0 position 0.0066555139546697 0.0246774849252054 0.0513598813197018 orientation 1 0 0 0 velocity 0 0 0 angularVelocity 0 0 0 force 0 0 0 torque 0 0 0 radius 0.000443725560642549 invMass 1366274.78889489
BaseParticle id 76 indSpecies 0 position 0.0173372368166808 0.0539767896253832 0.086017984537391 orientation 1 0 0 0 velocity 0 0 0 angularVelocity 0 0 0 force 0 0 0 torque 0 0 0 radius 0.00100712415532359 invMass 116850.979662066
BaseParticle id 77 indSpecies 0 position 0.0152771792232271 0.0946795410526176 0.0412491670425524 orientation 1 0 0 0 velocity 0 0 0 angularVelocity 0 0 0 force 0 0 0 torque 0 0 0 radius 0.000580360895819173 invMass 610642.416285943
BaseParticle id 78 indSpecies 0 position 0.00954264774029828 0.0716686687696086 0.0525518482992874 orientation 1 0 0 0 velocity 0 0 0 angularVelocity 0 0 0 force 0 0 0 torque 0 0 0 radius 0.000846591251419578 invMass 196725.232114813
BaseParticle id 79 indSpecies 0 position 0.0406718544283213 0.048650363787403 0.0669719776446261 orientation 1 0 0 0 velocity 0 0 0 angularVelocity 0 0 0 force 0 0 0 torque 0 0 0 radius 0.000476918836176213 invMass 1100393.37900822
BaseParticle id 80 indSpecies 0 position 0.0403467422906805 0.0508680276098959 0.00565702085787705 orientation 1 0 0 0 velocity 0 0 0 angularVelocity 0 0 0 force 0 0 0 torque 0 0 0 radius 0.000460307747612669 invMass 1223873.52690987
BaseParticle id 81 indSpecies 0 position 0.0589631102430047 0.009146822142278 0.0922581247126142 orientation 1 0 0 0 velocity 0 0 0 angularVelocity 0 0 0 force 0 0 0 torque 0 0 0 radius 0.000582123705663877 invMass 605111.684558704
BaseParticle id 82 indSpecies 0 position 0.0287428714067276 0.0147158287328521 0.0674126155046629 orientation 1 0 0 0 velocity 0 0 0 angularVelocity 0 0 0 force 0 0 0 torque 0 0 0 radius 0.000623490357993972 invMass 492484.050362975
BaseParticle id 83 indSpecies 0 position 0.0135726919271306 0.0795493101891602 0.010277583347375 orientation 1 0 0 0 velocity 0 0 0 angularVelocity 0 0 0 force 0 0 0 torque 0 0 0 radius 0.000484323809880965 invMass 1050688.39432978
BaseParticle id 84 indSpecies 0 position 0.0545839018611388 0.0942253700511294 0.0168032741948932 orientation 1 0 0 0 velocity 0 0 0 angularVelocity 0 0 0 force 0 0 0 torque 0 0 0 radius 0.00169859518145312 invMass 24356.3233919077
BaseParticle id 85 indSpecies 0 position 0.00498563861010073 0.022980958853866 0.0691273919594219 orientation 1 0 0 0 velocity 0 0 0 angularVelocity 0 0 0 force 0 0 0 torque 0 0 0 radius 0.00131904608387906 invMass 52011.752634791
BaseParticle id 86 indSpecies 0 position 0.0617560579797662 0.0235687481019937 0.0658886193615491 orientation 1 0 0 0 velocity 0 0 0 angularVelocity 0 0 0 force 0 0 0 torque 0 0 0 radius 0.00127409416558169 invMass 57713.4204665468
BaseParticle id 87 indSpecies 0 position 0.0797418597342988 0.0689548411695707 0.0208204010307599 orientation 1 0 0 0 velocity 0 0 0 angularVelocity 0 0 0 force 0 0 0 torque 0 0 0 radius 0.000827015232232589 invMass 211028.382051475
BaseParticle id 88 indSpecies 0 position 0.0109827281804916 0.0984752233154371 0.090121591100356 orientation 1 0 0 0 velocity 0 0 0 angularVelocity 0 0 0 force 0 0 0 torque 0 0 0 radius 0.000889408775780908 invMass 169659.102053792
BaseParticle id 89 indSpecies 0 position 0.0134619472422991 0.0286495233619124 0.0268494474451529 orientation 1 0 0 0 velocity 0 0 0 angularVelocity 0 0 0 force 0 0 0 torque 0 0 0 radius 0.00148692537359958 invMass 36308.9656761786
BaseParticle id 90 indSpecies 0 position 0.0323728059117004 0.0858094801327126 0.0857132481544155 orientation 1 0 0 0 velocity 0 0 0 angularVelocity 0 0 0 force 0 0 0 torque 0 0 0 radius 0.000920942861116838 invMass 152821.105808965
BaseParticle id 91 indSpecies 0 position 0.0180153228174752 0.0967466172792515 0.0720422967597448 orientation 1 0 0 0 velocity 0 0 0 angularVelocity 0 0 0 force 0 0 0 torque 0 0 0 radius 0.00047973018417937 invMass 1081160.72501841
BaseParticle id 92 indSpecies 0 position 0.00830354605959398 0.0784069091282721 0.0197375197711051 orientation 1 0 0 0 velocity 0 0 0 angularVelocity 0 0 0 force 0 0 0 torque 0 0 0 radius 0.00132912779376707 invMass 50837.1476997925
BaseParticle id 93 indSpecies 0 position 0.0736079634413049 0.0920831097363652 0.00127482032284623 orientation 1 0 0 0 velocity 0 0 0 angularVelocity 0 0 0 force 0 0 0 torque 0 0 0 radius 0.00180926498678324 invMass 20154.6313501453
BaseParticle id 94 indSpecies 0 position 0.0384345941818928 0.0601588660290848 0.0523861444067339 orientation 1 0 0 0 velocity 0 0 0 angularVelocity 0 0 0 force 0 0 0 torque 0 0 0 radius 0.00100330210648206 invMass 118191.494119509
BaseParticle id 95 indSpecies 0 position 0.0568431507266656 0.0646791353219383 0.0359738514423614 orientation 1 0 0 0 velocity 0 0 0 angularVelocity 0 0 0 force 0 0 0 torque 0 0 0 radius 0.000829891516929799 invMass 208841.795877752
BaseParticle id 96 indSpecies 0 position 0.0230888765090249 0.0441390457152025 0.00016523376091826 orientation 1 0 0 0 velocity 0 0 0 angularVelocity 0 0 0 force 0 0 0 torque 0 0 0 radius 0.000662919212603997 invMass 409731.711211739
BaseParticle id 97 indSpecies 0 position 0.0847743575603009 0.0455495300278538 0.0406859393783976 orientation 1 0 0 0 velocity 0 0 0 angularVelocity 0 0 0 force 0 0 0 torque 0 0 0 radius 0.000661826604775339 invMass 411764.338244556
BaseParticle id 98 indSpecies 0 position 0.0692592215079263 0.0675596889410543 0.0716687406677113 orientation 1 0 0 0 velocity 0 0 0 angularVelocity 0 0 0 force 0 0 0 torque 0 0 0 radius 0.000455824337766285 invMass 1260343.32598297
BaseParticle id 99 indSpecies 0 position 0.0236492976326036 0.000977054703070745 0.0665931275425543 orientation 1 0 0 0 velocity 0 0 0 angularVelocity 0 0 0 force 0 0 0 torque 0 0 0 radius 0.000614254280390884 invMass 515035.091659183
BaseParticle id 100 indSpecies 0 position 0.0778832942453369 0.0105986392958102 0.0583995338916783 orientation 1 0 0 0 velocity 0 0 0 angularVelocity 0 0 0 force 0 0 0 torque 0 0 0 radius 0.000716394752986895 invMass 324656.577491995
BaseParticle id 101 indSpecies 0 position 0.0930580266816001 0.013952367646664 0.0218292682228337 orientation 1 0 0 0 velocity 0 0 0 angularVelocity 0 0 0 force 0 0 0 torque 0 0 0 radius 0.000527810579198558 invMass 811796.40308262
BaseParticle id 102 indSpecies 0 position 0.0534512906768813 0.0901226403283676 0.017405660341116 orientation 1 0 0 0 velocity 0 0 0 angularVelocity 0 0 0 force 0 0 0 torque 0 0 0 radius 0.00086416382442013 invMass 184966.529998808
BaseParticle id 103 indSpecies 0 position 0.00830736345769152 0.0354076974695477 0.0899347657431525 orientation 1 0 0 0 velocity 0 0 0 angularVelocity 0 0 0 force 0 0 0 torque 0 0 0 radius 0.00113535774017538 invMass 81561.1273182496
BaseParticle id 104 indSpecies 0 position 0.0375577288329995 0.0789416384148024 0.039921243451609 orientation 1 0 0 0 velocity 0 0 0 angularVelocity 0 0 0 force 0 0 0 torque 0 0 0 radius 0.000892004056682158 invMass 168182.539773269
BaseParticle id 105 indSpecies 0 position 0.00657826791836111 0.0459180453364569 0.00489701050808931 orientation 1 0 0 0 velocity 0 0 0 angularVelocity 0 0 0 force 0 0 0 torque 0 0 0 radius 0.000861279161947419 invMass 186831.274045511
BaseParticle id 106 indSpecies 0 position 0.0816805293022836 0.091463232514017 0.0357483507732411 orientation 1 0 0 0 velocity 0 0 0 angularVelocity 0 0 0 force 0 0 0 torque 0 0 0 radius 0.00116683466448107 invMass 75136.926627494
BaseParticle id 107 indSpecies 0 position 0.0707821957107799 0.0197156201864448 0.0689581509968656 orientation 1 0 0 0 velocity 0 0 0 angularVelocity 0 0 0 force 0 0 0 torque 0 0 0 radius 0.000868923647946532 invMass 181943.499899349
BaseParticle id 108 indSpecies 0 position 0.0162674730492127 0.03247578597397 0.0517880295852311 orientation 1 0 0 0 velocity 0 0 0 angularVelocity 0 0 0 force 0 0 0 torque 0 0 0 radius 0.00118017008554465 invMass 72618.5526242977
BaseParticle id 109 indSpecies 0 position 0.0740168169382803 0.0621600835005193 0.0427312113878026 orientation 1 0 0 0 velocity 0 0 0 angularVelocity 0 0 0 force 0 0 0 torque 0 0 0 radius 0.000854789335601817 invMass 191119.107785955
BaseParticle id 110 indSpecies 0 position 0.0181319840083532 0.00227308962282438 0.0599255910516478 orientation 1 0 0 0 velocity 0 0 0 angularVelocity 0 0 0 force 0 0 0 torque 0 0 0 radius 0.000649510127947621 invMass 435635.850345833
BaseParticle id 111 indSpecies 0 position 0.0921308662815664 0.074229058647315 0.0211499512929935 orientation 1 0 0 0 velocity 0 0 0 angularVelocity 0 0 0 force 0 0 0 torque 0 0 0 radius 0.000712046766599342 invMass 330640.340169576
BaseParticle id 112 indSpecies 0 position 0.00120706520862219 0.0634428459560099 0.0693970971094471 orientation 1 0 0 0 velocity 0 0 0 angularVelocity 0 0 0 force 0 0 0 torque 0 0 0 radius 0.00146531264430441 invMass 37939.4039395085
BaseParticle id 113 indSpecies 0 position 0.0471422632717134 0.0581402318010663 0.00838723284342584 orientation 1 0 0 0 velocity 0 0 0 angularVelocity 0 0 0 force 0 0 0 torque 0 0 0 radius 0.000756376181318148 invMass 275846.744183425
BaseParticle id 114 indSpecies 0 position 0.0318780924827996 0.0773756099144224 0.0168108739733595 orientation 1 0 0 0 velocity 0 0 0 angularVelocity 0 0 0 force 0 0 0 torque 0 0 0 radius 0.000526063681868459 invMass 819910.474013656
BaseParticle id 115 indSpecies 0 position 0.0251130223040348 0.0918882478104082 0.0951110308104092 orientation 1 0 0 0 velocity 0 0 0 angularVelocity 0 0 0 force 0 0 0 torque 0 0 0 radius 0.0012489159761125 invMass 61274.7759085622
BaseParticle id 116 indSpecies 0 position 0.0739065104407198 0.060367269385264 0.0360272755510851 orientation 1 0 0 0 velocity 0 0 0 angularVelocity 0 0 0 force 0 0 0 torque 0 0 0 radius 0.00045022332117682 invMass 1307968.94611299
BaseParticle id 117 indSpecies 0 position 0.0619373218510884 0.0635821560736912 0.00818539214489478 orientation 1 0 0 0 velocity 0 0 0 angularVelocity 0 0 0 force 0 0 0 torque 0 0 0 radius 0.000614996507944611 invMass 513172.583212913
BaseParticle id 118 indSpecies 0 position 0.0328066049769459 0.068021619349698 0.0174390816898653 orientation 1 0 0 0 velocity 0 0 0 angularVelocity 0 0 0 force 0 0 0 torque 0 0 0 radius 0.000931083005533265 invMass 147882.299686513