MercuryDPM 0.14 name PSDSelfTest revision 5848 repository https://svn.mercurydpm.org/SourceCode/Branches/Timo
dataFile    fileType ONE_FILE saveCount 10 counter 22 lastSavedTimeStep 201
fStatFile   fileType ONE_FILE saveCount 20 counter 12 lastSavedTimeStep 201
eneFile     fileType ONE_FILE saveCount 20 counter 12 lastSavedTimeStep 201
restartFile fileType ONE_FILE saveCount 20 counter 12 lastSavedTimeStep 201
statFile    fileType ONE_FILE saveCount 20 counter 0
interactionFile fileType NO_FILE saveCount 0 counter 0
xMin 0 xMax 0.1 yMin 0 yMax 0.1 zMin 0 zMax 0.1
timeStep 0.0001 time 0.0200999999999999 ntimeSteps 201 timeMax 0.02
systemDimensions 3 particleDimensions 3 gravity 0 0 0 writeVTK 0 NO_FILE NO_FILE 0 0 0 0 random  0 1103515245 12345 1073741824 607 273 784607267
Species 1
LinearViscoelasticSpecies id 0 density 2000 stiffness 10000 dissipation 0
Walls 0
Boundaries 1
CubeInsertionBoundary id 0 maxFailed 1 massInserted 0.0803406655688743 volumeInserted 4.01703327844373e-05 numberOfParticlesInserted 7451 isActivated 1 psd 47 0.000387645 0 0.000405195 0.00641963 0.000423541 0.0157881 0.000442717 0.0289129 0.000462761 0.0475877 0.000483713 0.0702285 0.000505613 0.096661 0.000528505 0.12752 0.000552434 0.162984 0.000577445 0.199952 0.00060359 0.236205 0.000630917 0.270216 0.000659483 0.300988 0.000689341 0.328802 0.000720551 0.354678 0.000753175 0.379335 0.000787275 0.404133 0.000822919 0.430189 0.000860177 0.458372 0.000899122 0.489708 0.000939831 0.524177 0.000982382 0.561866 0.00102686 0.602098 0.00107335 0.643887 0.00112195 0.686123 0.00117275 0.727694 0.00122584 0.767495 0.00128134 0.804712 0.00133936 0.838663 0.0014 0.868961 0.00146338 0.895445 0.00152964 0.918157 0.00159889 0.937242 0.00167128 0.952947 0.00174695 0.965604 0.00182605 0.975541 0.00190872 0.983136 0.00199514 0.988764 0.00208547 0.992798 0.00217989 0.995601 0.00227859 0.997454 0.00238175 0.998635 0.00248959 0.999345 0.0026023 0.999741 0.00272012 0.999939 0.00284328 0.999995 0.00297201 1 initialVolume 0 samplingInterval 0 variableCumulativeVolumeFlowRate 0 particleToCopy BaseParticle id 0 indSpecies 0 position 0 0 0 orientation 1 0 0 0 velocity 0 0 0 angularVelocity 0 0 0 force 0 0 0 torque 0 0 0 radius 1 invMass 1 posMin 0 0 0 posMax 0.1 0.1 0.1 velMin 0 0 0 velMax 0 0 0 radMin 1 radMax 2
Particles 7451
BaseParticle id 0 indSpecies 0 position 0.0429633479165255 0.0462818009347824 0.0451551026244135 orientation 1 0 0 0 velocity 0 0 0 angularVelocity 0 0 0 force 0 0 0 torque 0 0 0 radius 0.000992611965961697 invMass 122051.431102804
BaseParticle id 1 indSpecies 0 position 0.0042086391670549 0.0886496798241048 0.0413787151301478 orientation 1 0 0 0 velocity 0 0 0 angularVelocity 0 0 0 force 0 0 0 torque 0 0 0 radius 0.00138878637495148 invMass 44563.0650252216
BaseParticle id 2 indSpecies 0 position 0.0636133957061792 0.0133658786179816 0.0342738464155478 orientation 1 0 0 0 velocity 0 0 0 angularVelocity 0 0 0 force 0 0 0 torque 0 0 0 radius 0.00136140675700761 invMass 47306.1592738614
BaseParticle id 3 indSpecies 0 position 0.0387400305469148 0.0428755277368468 0.0390974972032965 orientation 1 0 0 0 velocity 0 0 0 angularVelocity 0 0 0 force 0 0 0 torque 0 0 0 radius 0.00138281005231415 invMass 45143.3528080637
BaseParticle id 4 indSpecies 0 position 0.0214465732486485 0.0577091988569971 0.0775174578861171 orientation 1 0 0 0 velocity 0 0 0 angularVelocity 0 0 0 force 0 0 0 torque 0 0 0 radius 0.00104946954748608 invMass 103269.451792591
BaseParticle id 5 indSpecies 0 position 0.0651623650778436 0.0306274980952707 0.09859161777553 orientation 1 0 0 0 velocity 0 0 0 angularVelocity 0 0 0 force 0 0 0 torque 0 0 0 radius 0.000780335216326111 invMass 251210.492046167
BaseParticle id 6 indSpecies 0 position 0.020833188648491 0.0969839190161005 0.0537878006195763 orientation 1 0 0 0 velocity 0 0 0 angularVelocity 0 0 0 force 0 0 0 torque 0 0 0 radius 0.000634122825795049 invMass 468124.354531465
BaseParticle id 7 indSpecies 0 position 0.0571803620483909 0.0965598651240022 0.0187199103471638 orientation 1 0 0 0 velocity 0 0 0 angularVelocity 0 0 0 force 0 0 0 torque 0 0 0 radius 0.000475268387559113 invMass 1111897.13312031
BaseParticle id 8 indSpecies 0 position 0.015762079864962 0.0400944960861518 0.0128699160061126 orientation 1 0 0 0 velocity 0 0 0 angularVelocity 0 0 0 force 0 0 0 torque 0 0 0 radius 0.000657217646445202 invMass 420488.13676593
BaseParticle id 9 indSpecies 0 position 0.047419029430096 0.0279508040026288 0.0584089572928763 orientation 1 0 0 0 velocity 0 0 0 angularVelocity 0 0 0 force 0 0 0 torque 0 0 0 radius 0.000875144139491471 invMass 178091.269014092
BaseParticle id 10 indSpecies 0 position 0.00403006849435152 0.0288280775502063 0.0903246029370235 orientation 1 0 0 0 velocity 0 0 0 angularVelocity 0 0 0 force 0 0 0 torque 0 0 0 radius 0.00132661695030547 invMass 51126.3476682771
BaseParticle id 11 indSpecies 0 position 0.0680974906607554 0.0631496571347586 0.0324050429906649 orientation 1 0 0 0 velocity 0 0 0 angularVelocity 0 0 0 force 0 0 0 torque 0 0 0 radius 0.000872270665909394 invMass 179857.102350702
BaseParticle id 12 indSpecies 0 position 0.0425251628807512 0.07872364187732 0.0372247448775687 orientation 1 0 0 0 velocity 0 0 0 angularVelocity 0 0 0 force 0 0 0 torque 0 0 0 radius 0.000768780042690592 invMass 262709.085777525
BaseParticle id 13 indSpecies 0 position 0.0440465642660423 0.00549294957379536 0.00311985714070513 orientation 1 0 0 0 velocity 0 0 0 angularVelocity 0 0 0 force 0 0 0 torque 0 0 0 radius 0.00128575627875598 invMass 56157.1984382492
BaseParticle id 14 indSpecies 0 position 0.0961035105436076 0.0816598897039333 0.0772353886838673 orientation 1 0 0 0 velocity 0 0 0 angularVelocity 0 0 0 force 0 0 0 torque 0 0 0 radius 0.000710185263989338 invMass 333247.135537532
BaseParticle id 15 indSpecies 0 position 0.0505700907198991 0.0051891543854129 0.0810699480762054 orientation 1 0 0 0 velocity 0 0 0 angularVelocity 0 0 0 force 0 0 0 torque 0 0 0 radius 0.00111701949044264 invMass 85644.4336836654
BaseParticle id 16 indSpecies 0 position 0.0325601021455972 0.0326618832231854 0.00353757207883749 orientation 1 0 0 0 velocity 0 0 0 angularVelocity 0 0 0 force 0 0 0 torque 0 0 0 radius 0.000735228905865983 invMass 300340.345084429
BaseParticle id 17 indSpecies 0 position 0.0486500113749411 0.0716722087267114 0.0464099253095594 orientation 1 0 0 0 velocity 0 0 0 angularVelocity 0 0 0 force 0 0 0 torque 0 0 0 radius 0.0017217915065162 invMass 23385.1258580203
BaseParticle id 18 indSpecies 0 position 0.076193224195211 0.0434264381011702 0.0280959023832382 orientation 1 0 0 0 velocity 0 0 0 angularVelocity 0 0 0 force 0 0 0 torque 0 0 0 radius 0.000543776553651855 invMass 742369.227457719
BaseParticle id 19 indSpecies 0 position 0.0099951959122017 0.0789237790937314 0.00405941335106323 orientation 1 0 0 0 velocity 0 0 0 angularVelocity 0 0 0 force 0 0 0 torque 0 0 0 radius 0.0014606847196241 invMass 38301.1608316365
BaseParticle id 20 indSpecies 0 position 0.0324626619625253 0.00506626339157461 0.09576988434813 orientation 1 0 0 0 velocity 0 0 0 angularVelocity 0 0 0 force 0 0 0 torque 0 0 0 radius 0.000880186348117979 invMass 175048.143924673
BaseParticle id 21 indSpecies 0 position 0.0444340212788116 0.0262642771692348 0.0849237541808526 orientation 1 0 0 0 velocity 0 0 0 angularVelocity 0 0 0 force 0 0 0 torque 0 0 0 radius 0.00123150862525062 invMass 63910.0299881304
BaseParticle id 22 indSpecies 0 position 0.0962416532484427 0.0625728522775948 0.0757689981947011 orientation 1 0 0 0 velocity 0 0 0 angularVelocity 0 0 0 force 0 0 0 torque 0 0 0 radius 0.000903491251659292 invMass 161848.820912404
BaseParticle id 23 indSpecies 0 position 0.0421506992148695 0.0171126255606184 0.00570846078385743 orientation 1 0 0 0 velocity 0 0 0 angularVelocity 0 0 0 force 0 0 0 torque 0 0 0 radius 0.00108168489097494 invMass 94314.6385109543
BaseParticle id 24 indSpecies 0 position 0.0561625907605862 0.0634981227447296 0.0429515278498162 orientation 1 0 0 0 velocity 0 0 0 angularVelocity 0 0 0 force 0 0 0 torque 0 0 0 radius 0.00113057900815312 invMass 82599.7328162952
BaseParticle id 25 indSpecies 0 position 0.0432653544999051 0.0182147727178272 0.0998274202460168 orientation 1 0 0 0 velocity 0 0 0 angularVelocity 0 0 0 force 0 0 0 torque 0 0 0 radius 0.00100457922018806 invMass 117741.299167841
BaseParticle id 26 indSpecies 0 position 0.00755647597130715 0.0433548083125103 0.0614671393656478 orientation 1 0 0 0 velocity 0 0 0 angularVelocity 0 0 0 force 0 0 0 torque 0 0 0 radius 0.000967483416622982 invMass 131810.74240821
BaseParticle id 27 indSpecies 0 position 0.0472578531622348 0.0618409596738955 0.0319048466795079 orientation 1 0 0 0 velocity 0 0 0 angularVelocity 0 0 0 force 0 0 0 torque 0 0 0 radius 0.00118459408053734 invMass 71807.9817721003
BaseParticle id 28 indSpecies 0 position 0.0864861215590629 0.0102355983944278 0.0832432083010271 orientation 1 0 0 0 velocity 0 0 0 angularVelocity 0 0 0 force 0 0 0 torque 0 0 0 radius 0.00052164562940796 invMass 840919.989094965
BaseParticle id 29 indSpecies 0 position 0.0747353806395686 0.0534517348246167 0.00837098461727521 orientation 1 0 0 0 velocity 0 0 0 angularVelocity 0 0 0 force 0 0 0 torque 0 0 0 radius 0.000880195815196391 invMass 175042.495715542
BaseParticle id 30 indSpecies 0 position 0.0373731049360958 0.0911510293454388 0.0738148986605789 orientation 1 0 0 0 velocity 0 0 0 angularVelocity 0 0 0 force 0 0 0 torque 0 0 0 radius 0.000561648488235493 invMass 673732.677799263
BaseParticle id 31 indSpecies 0 position 0.0940437695998291 0.0473327197624997 0.0966515618407619 orientation 1 0 0 0 velocity 0 0 0 angularVelocity 0 0 0 force 0 0 0 torque 0 0 0 radius 0.00121353599720074 invMass 66791.8395759643
BaseParticle id 32 indSpecies 0 position 0.0267184714537873 0.00258612455559324 0.0779989904928962 orientation 1 0 0 0 velocity 0 0 0 angularVelocity 0 0 0 force 0 0 0 torque 0 0 0 radius 0.000591619568893068 invMass 576439.593316448
BaseParticle id 33 indSpecies 0 position 0.0252225785281299 0.052698124989217 0.0654509926536577 orientation 1 0 0 0 velocity 0 0 0 angularVelocity 0 0 0 force 0 0 0 torque 0 0 0 radius 0.000547239730001238 invMass 728364.105483054
BaseParticle id 34 indSpecies 0 position 0.0154171871809129 0.007775785487354 0.0379114581850251 orientation 1 0 0 0 velocity 0 0 0 angularVelocity 0 0 0 force 0 0 0 torque 0 0 0 radius 0.000664486523936543 invMass 406839.265850828
BaseParticle id 35 indSpecies 0 position 0.0338039195781537 0.0327630155414687 0.0586293312174926 orientation 1 0 0 0 velocity 0 0 0 angularVelocity 0 0 0 force 0 0 0 torque 0 0 0 radius 0.00053748521421698 invMass 768744.160886925
BaseParticle id 36 indSpecies 0 position 0.00216634226761168 0.023198932108284 0.0758287987896904 orientation 1 0 0 0 velocity 0 0 0 angularVelocity 0 0 0 force 0 0 0 torque 0 0 0 radius 0.000587457608526557 invMass 588778.301062747
BaseParticle id 37 indSpecies 0 position 0.0269550367007451 0.0592843265651871 0.0151729742855085 orientation 1 0 0 0 velocity 0 0 0 angularVelocity 0 0 0 force 0 0 0 torque 0 0 0 radius 0.000777437486632437 invMass 254029.972935581
BaseParticle id 38 indSpecies 0 position 0.0504671040452392 0.0367913936853489 0.0543931095354323 orientation 1 0 0 0 velocity 0 0 0 angularVelocity 0 0 0 force 0 0 0 torque 0 0 0 radius 0.00150877045842509 invMass 34754.5667469665
BaseParticle id 39 indSpecies 0 position 0.0644646338518107 0.0850706287798745 0.0477591144407549 orientation 1 0 0 0 velocity 0 0 0 angularVelocity 0 0 0 force 0 0 0 torque 0 0 0 radius 0.000834052919704145 invMass 205731.396478622
BaseParticle id 40 indSpecies 0 position 0.0117204199435931 0.000377548951303996 0.0266609168363168 orientation 1 0 0 0 velocity 0 0 0 angularVelocity 0 0 0 force 0 0 0 torque 0 0 0 radius 0.00106115099248367 invMass 99896.4008174207
BaseParticle id 41 indSpecies 0 position 0.0970729528953573 0.0969606445199245 0.09241394354737 orientation 1 0 0 0 velocity 0 0 0 angularVelocity 0 0 0 force 0 0 0 torque 0 0 0 radius 0.00150949949723167 invMass 34704.235111746
BaseParticle id 42 indSpecies 0 position 0.0569164710520613 0.0588207174476043 0.0884957535299512 orientation 1 0 0 0 velocity 0 0 0 angularVelocity 0 0 0 force 0 0 0 torque 0 0 0 radius 0.000526561897528315 invMass 817585.357861263
BaseParticle id 43 indSpecies 0 position 0.0446456021213479 0.0117705129908672 0.0417646053789513 orientation 1 0 0 0 velocity 0 0 0 angularVelocity 0 0 0 force 0 0 0 torque 0 0 0 radius 0.00179257702753883 invMass 20722.7751872897
BaseParticle id 44 indSpecies 0 position 0.0294178750091997 0.0783922997504544 0.0458044878711882 orientation 1 0 0 0 velocity 0 0 0 angularVelocity 0 0 0 force 0 0 0 torque 0 0 0 radius 0.00111130274712612 invMass 86972.9560666357
BaseParticle id 45 indSpecies 0 position 0.0266911341560156 0.0777098060793152 0.0743848989956222 orientation 1 0 0 0 velocity 0 0 0 angularVelocity 0 0 0 force 0 0 0 torque 0 0 0 radius 0.000572082880366925 invMass 637535.745719852
BaseParticle id 46 indSpecies 0 position 0.022109877856346 0.00506495804985523 0.0312824384018011 orientation 1 0 0 0 velocity 0 0 0 angularVelocity 0 0 0 force 0 0 0 torque 0 0 0 radius 0.000748578279790745 invMass 284557.298854593
BaseParticle id 47 indSpecies 0 position 0.0686011585699383 0.0798690657318858 0.0211302195478881 orientation 1 0 0 0 velocity 0 0 0 angularVelocity 0 0 0 force 0 0 0 torque 0 0 0 radius 0.00119517110589901 invMass 69918.3449303361
BaseParticle id 48 indSpecies 0 position 0.0935104752019882 0.0486952222430192 0.0594294081819901 orientation 1 0 0 0 velocity 0 0 0 angularVelocity 0 0 0 force 0 0 0 torque 0 0 0 radius 0.00106697244422006 invMass 98270.1875197777
BaseParticle id 49 indSpecies 0 position 0.0128010361336162 0.0439465037137768 0.0605432332860834 orientation 1 0 0 0 velocity 0 0 0 angularVelocity 0 0 0 force 0 0 0 torque 0 0 0 radius 0.00066351370371624 invMass 408631.370639308
BaseParticle id 50 indSpecies 0 position 0.099520420004129 0.0684156378093961 0.0893831915320985 orientation 1 0 0 0 velocity 0 0 0 angularVelocity 0 0 0 force 0 0 0 torque 0 0 0 radius 0.000452551034460953 invMass 1287889.81637049
BaseParticle id 51 indSpecies 0 position 0.0988053049903314 0.045253724097038 0.0833900956591683 orientation 1 0 0 0 velocity 0 0 0 angularVelocity 0 0 0 force 0 0 0 torque 0 0 0 radius 0.00103755434286772 invMass 106868.284357861
BaseParticle id 52 indSpecies 0 position 0.0494108574936065 0.0635016978126935 0.0877292337941665 orientation 1 0 0 0 velocity 0 0 0 angularVelocity 0 0 0 force 0 0 0 torque 0 0 0 radius 0.00171106537233078 invMass 23827.6706169762
BaseParticle id 53 indSpecies 0 position 0.0470675132730347 0.0921825840210704 0.085486751249538 orientation 1 0 0 0 velocity 0 0 0 angularVelocity 0 0 0 force 0 0 0 torque 0 0 0 radius 0.00111170515432993 invMass 86878.5446745768
BaseParticle id 54 indSpecies 0 position 0.00254601062969675 0.0519682149850128 0.0503574847706058 orientation 1 0 0 0 velocity 0 0 0 angularVelocity 0 0 0 force 0 0 0 torque 0 0 0 radius 0.00103668123126415 invMass 107138.531018067
BaseParticle id 55 indSpecies 0 position 0.0242646593374529 0.0213247085722865 0.0293926140019739 orientation 1 0 0 0 velocity 0 0 0 angularVelocity 0 0 0 force 0 0 0 torque 0 0 0 radius 0.00209562391792805 invMass 12970.0411943708
BaseParticle id 56 indSpecies 0 position 0.0166009553553528 0.0388066255126087 0.00282860956822653 orientation 1 0 0 0 velocity 0 0 0 angularVelocity 0 0 0 force 0 0 0 torque 0 0 0 radius 0.00100476656356358 invMass 117675.451216722
BaseParticle id 57 indSpecies 0 position 0.0557727767566472 0.0698103582767673 0.0918470906169647 orientation 1 0 0 0 velocity 0 0 0 angularVelocity 0 0 0 force 0 0 0 torque 0 0 0 radius 0.000808916954360166 invMass 225511.960700476
BaseParticle id 58 indSpecies 0 position 0.0102325176724861 0.0596129184033601 0.0183183245190249 orientation 1 0 0 0 velocity 0 0 0 angularVelocity 0 0 0 force 0 0 0 torque 0 0 0 radius 0.000878832339504751 invMass 175858.476137658
BaseParticle id 59 indSpecies 0 position 0.0369706462724408 0.0199129210599578 0.0881592285929628 orientation 1 0 0 0 velocity 0 0 0 angularVelocity 0 0 0 force 0 0 0 torque 0 0 0 radius 0.00104952916651189 invMass 103251.853974712
BaseParticle id 60 indSpecies 0 position 0.0339532971997249 0.0183561906978896 0.096889858323252 orientation 1 0 0 0 velocity 0 0 0 angularVelocity 0 0 0 force 0 0 0 torque 0 0 0 radius 0.000709447764429942 invMass 334287.487782983
BaseParticle id 61 indSpecies 0 position 0.0871216303788855 0.0846690296338228 0.0673004905066448 orientation 1 0 0 0 velocity 0 0 0 angularVelocity 0 0 0 force 0 0 0 torque 0 0 0 radius 0.00108643397899876 invMass 93083.2150024011
BaseParticle id 62 indSpecies 0 position 0.0429588166596752 0.0380378273892795 0.0498445376289594 orientation 1 0 0 0 velocity 0 0 0 angularVelocity 0 0 0 force 0 0 0 torque 0 0 0 radius 0.000671935736616187 invMass 393457.815702915
BaseParticle id 63 indSpecies 0 position 0.0895836357124302 0.00326430303671927 0.071450651184236 orientation 1 0 0 0 velocity 0 0 0 angularVelocity 0 0 0 force 0 0 0 torque 0 0 0 radius 0.00126515917571148 invMass 58944.8526247521
BaseParticle id 64 indSpecies 0 position 0.0656577938556133 0.0429913051957346 0.0329004984042603 orientation 1 0 0 0 velocity 0 0 0 angularVelocity 0 0 0 force 0 0 0 torque 0 0 0 radius 0.00161445096247658 invMass 28366.569667873
BaseParticle id 65 indSpecies 0 position 0.0620971977132399 0.0149347147765246 0.0537468226125959 orientation 1 0 0 0 velocity 0 0 0 angularVelocity 0 0 0 force 0 0 0 torque 0 0 0 radius 0.00110050152970341 invMass 89559.0428252085
BaseParticle id 66 indSpecies 0 position 0.0616555412657042 0.0915726233352231 0.0719495214783125 orientation 1 0 0 0 velocity 0 0 0 angularVelocity 0 0 0 force 0 0 0 torque 0 0 0 radius 0.000409535424560321 invMass 1737828.73201309
BaseParticle id 67 indSpecies 0 position 0.000901692732328829 0.0801335842533655 0.0479856011942163 orientation 1 0 0 0 velocity 0 0 0 angularVelocity 0 0 0 force 0 0 0 torque 0 0 0 radius 0.00105026787655164 invMass 103034.139384774
BaseParticle id 68 indSpecies 0 position 0.0629404888833496 0.077991357466214 0.0251419934209977 orientation 1 0 0 0 velocity 0 0 0 angularVelocity 0 0 0 force 0 0 0 torque 0 0 0 radius 0.0010876913136053 invMass 92760.784802861
BaseParticle id 69 indSpecies 0 position 0.0424296728871486 0.0177141948438117 0.0840283417291675 orientation 1 0 0 0 velocity 0 0 0 angularVelocity 0 0 0 force 0 0 0 torque 0 0 0 radius 0.00177557470376408 invMass 21323.7974077377
BaseParticle id 70 indSpecies 0 position 0.092023832824059 0.0220323394778815 0.0250499933724757 orientation 1 0 0 0 velocity 0 0 0 angularVelocity 0 0 0 force 0 0 0 torque 0 0 0 radius 0.00144128538168862 invMass 39868.6426054002
BaseParticle id 71 indSpecies 0 position 0.0863293279089692 0.0268780345778185 0.0426595558946398 orientation 1 0 0 0 velocity 0 0 0 angularVelocity 0 0 0 force 0 0 0 torque 0 0 0 radius 0.000916309122868135 invMass 155151.280272273
BaseParticle id 72 indSpecies 0 position 0.0507823089596049 0.0654179626466539 0.044658502615375 orientation 1 0 0 0 velocity 0 0 0 angularVelocity 0 0 0 force 0 0 0 torque 0 0 0 radius 0.000476192207429327 invMass 1105438.38913601
BaseParticle id 73 indSpecies 0 position 0.02356507030915 0.0626386648391945 0.0436484353210326 orientation 1 0 0 0 velocity 0 0 0 angularVelocity 0 0 0 force 0 0 0 torque 0 0 0 radius 0.000832454321973402 invMass 206918.898440632
BaseParticle id 74 indSpecies 0 position 0.0737540905608292 0.0935611102790003 0.030934741319218 orientation 1 0 0 0 velocity 0 0 0 angularVelocity 0 0 0 force 0 0 0 torque 0 0 0 radius 0.000436581211082248 invMass 1434452.82861276
BaseParticle id 75 indSpecies 0 position 0.0133462469900528 0.0335512118101574 0.0607635003880006 orientation 1 0 0 0 velocity 0 0 0 angularVelocity 0 0 0 force 0 0 0 torque 0 0 0 radius 0.00084494498955143 invMass 197877.352059111
BaseParticle id 76 indSpecies 0 position 0.0396378131214177 0.00145871201394245 0.0497256297155045 orientation 1 0 0 0 velocity 0 0 0 angularVelocity 0 0 0 force 0 0 0 torque 0 0 0 radius 0.00186468306200301 invMass 18410.5311130983
BaseParticle id 77 indSpecies 0 position 0.052633974652147 0.0904574840418459 0.0574903735355564 orientation 1 0 0 0 velocity 0 0 0 angularVelocity 0 0 0 force 0 0 0 torque 0 0 0 radius 0.000746868422357226 invMass 286516.146542522
BaseParticle id 78 indSpecies 0 position 0.0347447213393219 0.0224759218073674 0.0857333733833084 orientation 1 0 0 0 velocity 0 0 0 angularVelocity 0 0 0 force 0 0 0 torque 0 0 0 radius 0.000871131789651705 invMass 180563.434828608
BaseParticle id 79 indSpecies 0 position 0.0819761010986044 0.0749967138515816 0.037202677654845 orientation 1 0 0 0 velocity 0 0 0 angularVelocity 0 0 0 force 0 0 0 torque 0 0 0 radius 0.00116964832182822 invMass 74595.9911733656
BaseParticle id 80 indSpecies 0 position 0.0621539437564519 0.0387709238205376 0.041319174560421 orientation 1 0 0 0 velocity 0 0 0 angularVelocity 0 0 0 force 0 0 0 torque 0 0 0 radius 0.00143582321354011 invMass 40325.3813961409
BaseParticle id 81 indSpecies 0 position 0.0714202909996544 0.0966319254630879 0.00153605956441158 orientation 1 0 0 0 velocity 0 0 0 angularVelocity 0 0 0 force 0 0 0 torque 0 0 0 radius 0.00159860526052573 invMass 29218.4841951753
BaseParticle id 82 indSpecies 0 position 0.0903208902195833 0.0921103616318569 0.0778850681354431 orientation 1 0 0 0 velocity 0 0 0 angularVelocity 0 0 0 force 0 0 0 torque 0 0 0 radius 0.000591423568751986 invMass 577012.886440821
BaseParticle id 83 indSpecies 0 position 0.0302552368210114 0.00694192675227119 0.0107153382983847 orientation 1 0 0 0 velocity 0 0 0 angularVelocity 0 0 0 force 0 0 0 torque 0 0 0 radius 0.0010231864459823 invMass 111433.830534595
BaseParticle id 84 indSpecies 0 position 0.0348887757073261 0.0138253928033399 0.0435838821869494 orientation 1 0 0 0 velocity 0 0 0 angularVelocity 0 0 0 force 0 0 0 torque 0 0 0 radius 0.00134708247514584 invMass 48831.3618433699
BaseParticle id 85 indSpecies 0 position 0.0843299946893659 0.0399289263971812 0.0395847791437201 orientation 1 0 0 0 velocity 0 0 0 angularVelocity 0 0 0 force 0 0 0 torque 0 0 0 radius 0.000917083184217289 invMass 154758.746837813
BaseParticle id 86 indSpecies 0 position 0.0674532694113876 0.0926583688774534 0.0311073244259625 orientation 1 0 0 0 velocity 0 0 0 angularVelocity 0 0 0 force 0 0 0 torque 0 0 0 radius 0.00146756367862765 invMass 37765.0906076267
BaseParticle id 87 indSpecies 0 position 0.0647014458061182 0.0870917761818582 0.0230914911040184 orientation 1 0 0 0 velocity 0 0 0 angularVelocity 0 0 0 force 0 0 0 torque 0 0 0 radius 0.00158800226709504 invMass 29807.6707684301
BaseParticle id 88 indSpecies 0 position 0.0450302669359089 0.0992501400418113 0.00930219254521449 orientation 1 0 0 0 velocity 0 0 0 angularVelocity 0 0 0 force 0 0 0 torque 0 0 0 radius 0.000494938288553418 invMass 984528.37701183
BaseParticle id 89 indSpecies 0 position 0.0513598813197018 0.076014838203774 0.0849719511484989 orientation 1 0 0 0 velocity 0 0 0 angularVelocity 0 0 0 force 0 0 0 torque 0 0 0 radius 0.000652518283691162 invMass 429638.646196569
BaseParticle id 90 indSpecies 0 position 0.0539767896253832 0.086017984537391 0.0723647109490217 orientation 1 0 0 0 velocity 0 0 0 angularVelocity 0 0 0 force 0 0 0 torque 0 0 0 radius 0.000417789418405184 invMass 1636850.76823396
BaseParticle id 91 indSpecies 0 position 0.0152771792232271 0.0946795410526176 0.0412491670425524 orientation 1 0 0 0 velocity 0 0 0 angularVelocity 0 0 0 force 0 0 0 torque 0 0 0 radius 0.00139263649847629 invMass 44194.4848413794
BaseParticle id 92 indSpecies 0 position 0.0635616950098782 0.00954264774029828 0.0716686687696086 orientation 1 0 0 0 velocity 0 0 0 angularVelocity 0 0 0 force 0 0 0 torque 0 0 0 radius 0.001118167564725 invMass 85380.8991651331
BaseParticle id 93 indSpecies 0 position 0.0142968914338417 0.0735978252500316 0.0406718544283213 orientation 1 0 0 0 velocity 0 0 0 angularVelocity 0 0 0 force 0 0 0 torque 0 0 0 radius 0.00139454980070957 invMass 44012.8317056908
BaseParticle id 94 indSpecies 0 position 0.0755628695939082 0.0360331155024161 0.021571674177822 orientation 1 0 0 0 velocity 0 0 0 angularVelocity 0 0 0 force 0 0 0 torque 0 0 0 radius 0.000607997733671681 invMass 531099.036746107
BaseParticle id 95 indSpecies 0 position 0.0693145474704779 0.0107353513960397 0.0453181019562128 orientation 1 0 0 0 velocity 0 0 0 angularVelocity 0 0 0 force 0 0 0 torque 0 0 0 radius 0.000761855041428149 invMass 269938.206323677
BaseParticle id 96 indSpecies 0 position 0.0922581247126142 0.0930748260644499 0.0862769446463539 orientation 1 0 0 0 velocity 0 0 0 angularVelocity 0 0 0 force 0 0 0 torque 0 0 0 radius 0.00095004228678478 invMass 139204.279232488
BaseParticle id 97 indSpecies 0 position 0.0147158287328521 0.0674126155046629 0.086778180965429 orientation 1 0 0 0 velocity 0 0 0 angularVelocity 0 0 0 force 0 0 0 torque 0 0 0 radius 0.000576121340732256 invMass 624222.626861309
BaseParticle id 98 indSpecies 0 position 0.0135726919271306 0.0795493101891602 0.010277583347375 orientation 1 0 0 0 velocity 0 0 0 angularVelocity 0 0 0 force 0 0 0 torque 0 0 0 radius 0.000733156171686608 invMass 302894.864903764
BaseParticle id 99 indSpecies 0 position 0.066649111391372 0.0545839018611388 0.0942253700511294 orientation 1 0 0 0 velocity 0 0 0 angularVelocity 0 0 0 force 0 0 0 torque 0 0 0 radius 0.000539666718440099 invMass 759459.270774367
BaseParticle id 100 indSpecies 0 position 0.0170929364700867 0.0969015753856845 0.00498563861010073 orientation 1 0 0 0 velocity 0 0 0 angularVelocity 0 0 0 force 0 0 0 torque 0 0 0 radius 0.00101828942312312 invMass 113049.252896602
BaseParticle id 101 indSpecies 0 position 0.0476348421092752 0.0147536236655399 0.0518573951424496 orientation 1 0 0 0 velocity 0 0 0 angularVelocity 0 0 0 force 0 0 0 torque 0 0 0 radius 0.00115122524794467 invMass 78234.8902964686
BaseParticle id 102 indSpecies 0 position 0.00796576812121479 0.0736336674786791 0.0892099632050749 orientation 1 0 0 0 velocity 0 0 0 angularVelocity 0 0 0 force 0 0 0 torque 0 0 0 radius 0.000642531631288387 invMass 449984.814060643
BaseParticle id 103 indSpecies 0 position 0.0208204010307599 0.0714064499629602 0.00439413180165538 orientation 1 0 0 0 velocity 0 0 0 angularVelocity 0 0 0 force 0 0 0 torque 0 0 0 radius 0.000856080029151675 invMass 190255.97185323
BaseParticle id 104 indSpecies 0 position 0.0984752233154371 0.090121591100356 0.0810711832893349 orientation 1 0 0 0 velocity 0 0 0 angularVelocity 0 0 0 force 0 0 0 torque 0 0 0 radius 0.00118794070622954 invMass 71202.8049338247
BaseParticle id 105 indSpecies 0 position 0.0134619472422991 0.0286495233619124 0.0268494474451529 orientation 1 0 0 0 velocity 0 0 0 angularVelocity 0 0 0 force 0 0 0 torque 0 0 0 radius 0.000764223633268032 invMass 267436.083329248
BaseParticle id 106 indSpecies 0 position 0.0743427677318987 0.0323728059117004 0.0858094801327126 orientation 1 0 0 0 velocity 0 0 0 angularVelocity 0 0 0 force 0 0 0 torque 0 0 0 radius 0.00152790884536414 invMass 33464.86363709
BaseParticle id 107 indSpecies 0 position 0.0571930604454195 0.0712844222120155 0.0180153228174752 orientation 1 0 0 0 velocity 0 0 0 angularVelocity 0 0 0 force 0 0 0 torque 0 0 0 radius 0.00103238455448322 invMass 108481.80425865
BaseParticle id 108 indSpecies 0 position 0.0274100038899016 0.0917371995824043 0.0726231762463011 orientation 1 0 0 0 velocity 0 0 0 angularVelocity 0 0 0 force 0 0 0 torque 0 0 0 radius 0.0014093106883771 invMass 42644.3165027939
BaseParticle id 109 indSpecies 0 position 0.0917397117319147 0.0651353690166628 0.0683081891682854 orientation 1 0 0 0 velocity 0 0 0 angularVelocity 0 0 0 force 0 0 0 torque 0 0 0 radius 0.00108033164947081 invMass 94669.502932935
BaseParticle id 110 indSpecies 0 position 0.00127482032284623 0.0705311519368262 0.0849644390074867 orientation 1 0 0 0 velocity 0 0 0 angularVelocity 0 0 0 force 0 0 0 torque 0 0 0 radius 0.000835047406363372 invMass 204997.233737922
BaseParticle id 111 indSpecies 0 position 0.0601588660290848 0.0523861444067339 0.0389925614567543 orientation 1 0 0 0 velocity 0 0 0 angularVelocity 0 0 0 force 0 0 0 torque 0 0 0 radius 0.00187573990444505 invMass 18086.8752017101
BaseParticle id 112 indSpecies 0 position 0.0568431507266656 0.0646791353219383 0.0359738514423614 orientation 1 0 0 0 velocity 0 0 0 angularVelocity 0 0 0 force 0 0 0 torque 0 0 0 radius 0.000514009050213091 invMass 878959.972329401
BaseParticle id 113 indSpecies 0 position 0.0999761773273571 0.0230888765090249 0.0441390457152025 orientation 1 0 0 0 velocity 0 0 0 angularVelocity 0 0 0 force 0 0 0 torque 0 0 0 radius 0.00117337865692691 invMass 73886.7972737263
BaseParticle id 114 indSpecies 0 position 0.0843651056435284 0.0131521929864286 0.0847743575603009 orientation 1 0 0 0 velocity 0 0 0 angularVelocity 0 0 0 force 0 0 0 torque 0 0 0 radius 0.000812403169089937 invMass 222621.225128203
BaseParticle id 115 indSpecies 0 position 0.00893305846589334 0.0190947039806334 0.0665667227780756 orientation 1 0 0 0 velocity 0 0 0 angularVelocity 0 0 0 force 0 0 0 torque 0 0 0 radius 0.00108564374570879 invMass 93286.6270623662
BaseParticle id 116 indSpecies 0 position 0.093205480563263 0.020453288387085 0.0748745822581699 orientation 1 0 0 0 velocity 0 0 0 angularVelocity 0 0 0 force 0 0 0 torque 0 0 0 radius 0.000619996745409358 invMass 500856.328756949
BaseParticle id 117 indSpecies 0 position 0.0665931275425543 0.0266563164753315 0.0390199046218583 orientation 1 0 0 0 velocity 0 0 0 angularVelocity 0 0 0 force 0 0 0 torque 0 0 0 radius 0.000676211882982072 invMass 386040.616174495
BaseParticle id 118 indSpecies 0 position 0.0105986392958102 0.0583995338916783 0.0159315271154684 orientation 1 0 0 0 velocity 0 0 0 angularVelocity 0 0 0 force 0 0 0 torque 0 0 0 radius 0.00167240265161614 invMass 25518.7179992951