restart_version 3
name AxisymmetricHopper
xmin 0 xmax 20 ymin 0 ymax 20 zmin 0 zmax 19.42809
dt 0.01 t 8.95 tmax 8.9442719 save_count_data 19 save_count_ene 19 save_count_stat 19 save_count_fstat 19
dim 3 gravity 0 0 -1
options_fstat 0 options_data 1 options_ene 1 options_restart 1
Species 1
k 501.70032 disp 4.0546511 kt 143.34295 krolling 143.34295 dispt 1.1584717 disprolling 1.1584717 mu 0.4 murolling 0.1 rho 1.9098593 dim_particle 3
Walls 1
FiniteAxisSymmetricWall axisOrigin 10 10 0 axisOrientation 0 0 1 FiniteWall numFiniteWalls 3 normal 0.81649658 0 -0.57735027 position -3.0518474 normal -1 0 0 position -10 normal 0 0 1 position 10
Boundaries 0
Particles 558
TSP BP 2.1369211 9.6392836 17.600255 0.76749751 0.035208718 -0.64893477 0.5 -0.05036894 1.0979677 -4.0383042e-17 -0.090873192 1.9809 -7.8676114e-17 1 10 0 1 0.0024897402 0.00011421609 -0.0035247274 0.0044279946 0.00020313293 -0.0062687159 0 0 0 -1 0 8.47
TSP BP 7.9183147 15.792541 16.991756 0 0 -1.835 0.5 0 0 0 0 0 0 1 10 0 0
TSP BP 17.34957 10.037211 16.598577 -1.0875436 -0.005506193 -1.1413123 0.5 0.015896876 -3.1398367 -3.5923524e-16 0.01422052 -2.8087348 -1.5730626e-15 1 10 0 1 -0.00068029281 -3.4442972e-06 -0.00096209164 -0.0062787603 -3.178913e-05 -0.0088796218 0 0 0 -1 0 8.83
TSP BP 7.9590329 15.754815 15.064915 0.70915988 -0.93091207 -0.51209964 0.5 0.45902187 0.3572141 0.28019502 2.1000174 1.1774737 0.47006052 1 10 0 1 0.0023486239 -0.0019405825 -0.0037336364 0.0038248072 -0.0040240417 -0.0072139467 0 0 0 -1 0 8.71
TSP BP 3.8342776 9.3578534 18.527161 0 0 -0.795 0.5 0 0 0 0 0 0 1 10 0 0
TSP BP 10.75148 14.181763 17.656096 0 0 -0.815 0.5 0 0 0 0 0 0 1 10 0 0
TSP BP 14.320871 10.989106 14.289048 -0.85857848 -0.61187411 -2.3632377 0.5 -0.008276358 -0.53403532 -0.065534221 -0.20036581 -0.4227964 0.43706842 1 10 0 0
TSP BP 4.91096 16.541014 17.93057 0.405058 -0.12767193 -0.8810705 0.5 0.86814245 0.73068216 -0.33810363 1.1278868 0.98793094 -0.78679708 1 10 0 0
TSP BP 12.408826 11.114179 16.742246 0 0 -1.835 0.5 0 0 0 0 0 0 1 10 0 0
TSP BP 6.9289684 9.4506326 -2.9068031 -0.35990479 -0.06810868 -5.8403337 0.5 1.5062147 6.1941802 -2.6414467 -0.10774838 -0.6003949 -0.73735518 1 10 0 0
TSP BP 11.168191 8.3634895 15.238522 -0.12632469 -0.05025147 -2.2832387 0.5 -0.1841675 0.46296959 -5.441372e-17 -0.11084201 0.27864026 -3.0301595e-17 1 10 0 0
TSP BP 12.373208 10.562079 13.167603 0.014939877 0.1267211 -3.0619068 0.5 0.67899189 -0.080050246 8.3805704e-16 0.43087363 -0.050798163 5.4167945e-16 1 10 0 0
TSP BP 10.344656 8.0326055 2.7909708 -0.27296395 -0.22153394 -4.6109988 0.5 -11.18966 -7.1892778 -0.77714441 -0.15914114 0.081586139 -0.15526046 1 10 0 0
TSP BP 10.317962 5.069318 14.402879 -0.80942963 0.67989993 -2.4283911 0.5 1.6172731 0.57892801 1.464235 1.1464129 0.2478497 1.0497505 1 10 0 0
TSP BP 9.0558528 16.169771 18.51447 0 0 -0.825 0.5 0 0 0 0 0 0 1 10 0 0
TSP BP 11.01567 11.641232 0.067887897 -0.20723529 -0.27859824 -5.4482785 0.5 5.5768488 -9.7249411 0.26307002 -0.60885481 -0.11482717 0.018043551 1 10 0 0
TSP BP 8.0586053 12.130334 0.4491551 -0.52104397 0.34427005 -5.0867062 0.5 9.1643931 7.3000856 -0.24833272 0.34824275 0.36950452 0.19572401 1 10 0 0
TSP BP 7.6827956 14.077509 14.773481 0.56443158 -0.72963105 -1.8066363 0.5 -0.86979661 -0.52765698 -0.16761558 -0.53683867 -1.1049766 0.26505715 1 10 0 0
TSP BP 9.2120724 8.1071512 14.41821 0 0 -2.915 0.5 0 0 0 0 0 0 1 10 0 0
TSP BP 9.0928289 8.3770891 0.56923476 -0.22158 0.22165436 -4.9454451 0.5 -15.887339 -2.3214193 -0.40693264 -0.70392372 0.30919064 0.15477429 1 10 0 0
TSP BP 6.1184419 9.2882912 16.772375 0 0 -1.855 0.5 0 0 0 0 0 0 1 10 0 0
TSP BP 12.408927 16.887535 16.638642 -0.32369115 -0.92548862 -0.36031236 0.5 0.555832 -0.19440315 -4.6957421e-18 2.3600693 -0.82543807 -1.9204684e-17 1 10 0 1 -0.00082894975 -0.0023701098 -0.0035509373 -0.00190367 -0.0054429196 -0.0081546715 0 0 0 -1 0 8.79
TSP BP 10.896489 6.0595133 16.999588 0 0 -1.885 0.5 0 0 0 0 0 0 1 10 0 0
TSP BP 9.0018598 9.4617624 -4.6368091 0.024628084 -0.0099333354 -6.3519598 0.5 2.6815618 6.5886902 -1.3150902 0.33360686 -0.63951668 -0.33577635 1 10 0 1 0.0012698981 -0.00057799175 0.0023037138 0.00040308302 0.00017068852 -0.00018326852 0 0 0 14 -1 8.11
TSP BP 9.8380439 7.5778859 5.8322358 -0.23116247 -0.56452679 -3.5748836 0.5 -13.919399 -8.3639383 -1.1553957 -1.1046718 -0.20570171 -0.69592127 1 10 0 0
TSP BP 10.850755 7.1899543 -1.5565114 0.32089041 -0.16869791 -5.2347053 0.5 -9.9307185 -1.8347701 -1.6981502 -0.6962021 -0.42480751 -0.45393083 1 10 0 1 -0.00071579233 -0.00064743098 -0.00033478825 0.0011949595 0.00096418093 0.00067544304 0 0 0 14 -1 6.07
TSP BP 7.8636727 11.435514 3.8606387 -0.15112593 0.19065361 -4.3016904 0.5 8.7909895 11.401069 0.61503263 0.34429098 0.14942124 -0.30515283 1 10 0 0
TSP BP 6.2763604 13.609087 18.545133 0 0 -0.835 0.5 0 0 0 0 0 0 1 10 0 0
TSP BP 12.795144 7.9153554 16.754544 0 0 -1.905 0.5 0 0 0 0 0 0 1 10 0 0
TSP BP 8.9908424 8.4787064 2.0597816 -0.37693614 0.20211115 -4.6136791 0.5 -10.425273 -1.8823605 0.67498062 -0.025613435 0.45157422 0.20126949 1 10 0 0
TSP BP 12.145526 14.7841 18.371232 0 0 -0.835 0.5 0 0 0 0 0 0 1 10 0 0
TSP BP 5.5295007 7.7364915 18.129941 0 0 -0.845 0.5 0 0 0 0 0 0 1 10 0 0
TSP BP 11.448437 10.240955 -1.3984136 -0.17361709 0.12187029 -5.4428899 0.5 -2.4988899 -12.446574 4.4856617 -0.22501547 -0.6099821 0.59695841 1 10 0 0
TSP BP 14.72936 8.4930291 16.568011 0 0 -1.925 0.5 0 0 0 0 0 0 1 10 0 0
TSP BP 9.4701992 13.110754 17.663007 0 0 -0.855 0.5 0 0 0 0 0 0 1 10 0 0
TSP BP 7.7380611 10.165252 17.432546 0.13321072 -0.010993615 -1.0982624 0.5 -0.0018448668 -0.022354432 5.8472959e-19 -0.034613833 -0.41941921 -2.2786776e-17 1 10 0 0
TSP BP 6.7233345 5.2477763 17.202335 0 0 -0.925 0.5 0 0 0 0 0 0 1 10 0 0
TSP BP 4.8293431 14.595893 17.992972 0 0 -0.925 0.5 0 0 0 0 0 0 1 10 0 0
TSP BP 5.7197915 15.270297 17.213225 0.099026087 0.0097742432 -1.6452683 0.5 -0.073124465 -0.072468633 0.034325638 -0.12416186 -0.12493866 0.058470163 1 10 0 0
TSP BP 15.514763 3.9958943 18.335488 0 0 -0.925 0.5 0 0 0 0 0 0 1 10 0 0
TSP BP 7.2963859 11.7182 -1.3211223 -0.5270069 0.20382347 -5.5623223 0.5 4.4638692 8.812904 0.15032659 0.44570888 -0.21441709 0.31221707 1 10 0 0
TSP BP 10.819898 7.7669483 6.1671699 -0.40873071 -0.12073728 -3.7480415 0.5 -9.9016443 -7.3988287 0.89230536 -0.70685243 -0.13848872 -0.29720903 1 10 0 1 -0.0014814148 0.0030278205 0.00063426923 -0.00012671619 8.3312102e-05 0.00018694678 0 0 0 24 -1 8.29
TSP BP 6.0214346 10.931911 16.388668 0 0 -2.005 0.5 0 0 0 0 0 0 1 10 0 0
TSP BP 16.248799 14.0747 17.758263 0 0 -0.955 0.5 0 0 0 0 0 0 1 10 0 0
TSP BP 11.996159 11.649381 -0.87366043 0.35263981 -0.0081955375 -5.1076102 0.5 10.177626 -4.7463645 0.098709021 0.56590007 0.51295383 0.33469482 1 10 0 0
TSP BP 5.4488248 7.589994 -3.0179124 -0.77397945 -0.32645333 -5.8194205 0.5 -0.63606854 5.5134024 -0.67361752 0.12747005 -0.3728182 -0.3278435 1 10 0 0
TSP BP 11.479055 9.7110607 -4.3026449 0.064787466 0.14473493 -6.043271 0.5 -3.1000059 -1.0655879 0.30101774 -0.79305395 -0.47631634 -0.028723303 1 10 0 0
TSP BP 14.662378 12.565303 18.22187 0 0 -0.955 0.5 0 0 0 0 0 0 1 10 0 0
TSP BP 7.4868487 8.0640311 -0.071829864 -0.64728908 0.17730012 -4.9654154 0.5 -12.698317 2.7174046 -1.4227805 -0.45436618 -0.05269028 -0.45333746 1 10 0 0
TSP BP 9.1427039 14.055748 18.375249 0 0 -0.985 0.5 0 0 0 0 0 0 1 10 0 0
TSP BP 17.371922 8.9376847 17.820215 0 0 -0.985 0.5 0 0 0 0 0 0 1 10 0 0
TSP BP 11.152138 16.745405 15.980162 0 0 -2.005 0.5 0 0 0 0 0 0 1 10 0 0
TSP BP 17.524774 11.498814 17.00106 -0.66454623 -0.13236696 -0.95455354 0.5 0.34373247 -1.7257034 2.6129099e-17 0.34374534 -1.725768 4.2963544e-17 1 10 0 1 0.00061484528 0.00012246733 0.00088660359 -0.0038356593 -0.00076400187 -0.0055310001 0 0 0 -1 0 8.95
TSP BP 11.256711 8.1051416 2.1235408 -0.13769783 -0.26554291 -4.7540429 0.5 -7.1918292 -8.9535421 -3.7590863 -0.071532953 -0.01814695 -1.6765827 1 10 0 1 0.00075495836 -0.0059716924 -6.5379231e-06 -0.00086226703 0.0047950078 -0.00036400053 0 0 0 12 -1 8.24
TSP BP 13.55769 5.2838815 15.016989 -0.016830609 0.76217048 -2.2813244 0.5 0.14477539 0.81631855 -0.23765677 0.33522092 0.44215128 -0.26190369 1 10 0 0
TSP BP 15.006032 16.889963 18.191803 -0.006193925 -0.0085248981 -0.97873283 0.5 0 0 0 0.028968494 -0.021047604 2.7613773e-18 1 10 0 1 -0.0011913903 -0.0016397488 -0.0028664219 0 0 0 0 0 0 -1 0 8.95
TSP BP 9.7549923 7.1185899 4.3862886 -0.12606876 -0.036796866 -4.1617603 0.5 -14.185719 5.9713042 0.34294604 0.217806 0.58193514 -0.39007299 1 10 0 1 0.00090645324 -0.0010508229 0.02067491 -0.00018256733 1.9504195e-05 -0.00026968279 0 0 0 -1 0 7.25
TSP BP 10.575849 10.808189 -1.5661295 -0.2065964 0.13889388 -5.5596955 0.5 3.4603259 -7.5744511 -3.3591898 1.0640344 0.19665253 -0.9038568 1 10 0 0
TSP BP 9.3303189 12.852847 2.6264679 -0.013621599 0.48348266 -4.6713945 0.5 15.04871 1.4778224 -0.74708361 0.72771445 0.11915382 -0.018690682 1 10 0 0
TSP BP 10.802818 8.5810729 0.7746655 -0.27555017 0.15809921 -4.9418715 0.5 -8.7763767 -9.7027867 -0.43297928 -0.46033638 -0.77145332 -0.10893792 1 10 0 0
TSP BP 11.653727 12.490027 16.566962 0.206412 0.0026989535 -1.6632492 0.5 0.030687348 -0.33312526 0.054341503 0.04462129 -0.32963509 0.061447783 1 10 0 0
TSP BP 16.29053 4.7853726 18.124262 0 0 -0.995 0.5 0 0 0 0 0 0 1 10 0 0
TSP BP 11.104938 5.0959351 15.956881 0 0 -2.015 0.5 0 0 0 0 0 0 1 10 0 0
TSP BP 9.7234481 7.8944946 1.5112902 -0.24981085 0.028522723 -4.7766845 0.5 -9.2361362 -2.5308217 1.2573412 -0.96918224 0.39061103 0.34999631 1 10 0 1 2.9324138e-05 0.00010805945 -7.4159481e-05 -0.00033269569 0.0011159673 -0.0016533112 0 0 0 29 -1 8.62
TSP BP 8.9563407 7.8752505 2.9779144 -0.68084189 0.015343248 -4.5963919 0.5 -7.8611806 -1.8356968 0.84173619 0.72244666 0.79838742 0.54263162 1 10 0 0
TSP BP 13.891955 16.143928 16.367656 -0.50753784 -0.80121067 -0.58085634 0.5 0.082505429 -0.052264191 5.3271995e-19 2.0402999 -1.2924558 -2.3004952e-16 1 10 0 1 -0.01619688 -0.025568759 -0.042804214 0.0013107406 0.0020691647 0.0034639525 0 0 0 -1 0 8.95
TSP BP 8.1757027 5.2222821 17.743248 0 0 -1.005 0.5 0 0 0 0 0 0 1 10 0 0
TSP BP 12.314828 11.359278 -2.4007817 0.27382555 -0.070427433 -5.5751857 0.5 7.3978274 -9.9699236 -6.9054798 0.87832738 -0.90908819 -2.1952888 1 10 0 1 0.0015663049 0.0014853101 0.00041987779 -0.0028953821 0.0032004061 -0.0021564295 0 0 0 44 -1 7.56
TSP BP 13.924982 11.172121 5.0234142 0.88083258 0.21536255 -3.7023344 0.5 7.7159615 -14.665756 0.10259666 1.1341041 -2.6852286 0.44295498 1 10 0 0
TSP BP 16.261491 10.92573 17.465365 0 0 -1.005 0.5 0 0 0 0 0 0 1 10 0 0
TSP BP 6.5674823 12.130295 3.534406 -1.0746507 -0.029198075 -4.1123588 0.5 12.499146 10.210017 -1.763323 2.1800267 0.37313823 -0.47761785 1 10 0 1 -0.00028173496 -6.2597261e-05 -0.0044954692 -7.5945629e-05 0.00038583086 -3.6089495e-05 0 0 0 58 -1 7.39
TSP BP 10.362854 13.145315 -3.1891499 -0.2039478 0.38382114 -5.8544841 0.5 6.8102718 -6.2644114 0.5491603 0.078316284 0.14240474 0.24451153 1 10 0 0
TSP BP 11.22748 10.694601 17.305194 -0.023956764 0.016619349 -1.6808737 0.5 -0.18751959 -0.1493429 -0.0055769217 -0.013175478 -0.044982901 -0.013805518 1 10 0 0
TSP BP 12.515201 11.241298 1.3147125 0.19590253 -0.076116773 -4.7940349 0.5 5.4987553 -8.1059132 -0.5554089 0.42265249 -0.54660573 -0.62495666 1 10 0 0
TSP BP 7.5530091 5.0169564 14.159723 0.40799025 0.84842462 -1.5496689 0.5 -0.76904204 0.33914613 0.82160791 -2.261444 0.020686258 0.63572724 1 10 0 0
TSP BP 9.388861 7.8209388 17.373191 0 0 -1.045 0.5 0 0 0 0 0 0 1 10 0 0
TSP BP 9.1835526 9.2244067 18.371903 0 0 -1.045 0.5 0 0 0 0 0 0 1 10 0 0
TSP BP 9.3443193 14.468159 -2.346196 -0.24902296 1.3361888 -5.9590436 0.5 9.2327189 -2.962816 2.5206284 -0.32935316 0.36339839 1.2984748 1 10 0 0
TSP BP 6.1504582 3.0972605 17.633216 0.32956007 0.59094496 -0.9933391 0.5 -1.3932577 0.77699639 3.3024849e-17 -1.5453305 0.86180484 3.4433648e-17 1 10 0 1 0.00070446273 0.0012631952 -0.0020454485 0.0017853322 0.0032013376 -0.0051838159 0 0 0 -1 0 8.13
TSP BP 15.536488 6.5482363 18.269259 0 0 -1.055 0.5 0 0 0 0 0 0 1 10 0 0
TSP BP 12.131118 11.797316 -3.8540159 -0.026612684 0.54639757 -5.9337028 0.5 -2.9230484 -11.95432 3.7983672 -0.87501157 -1.5073066 0.84824195 1 10 0 1 0.0069419582 -0.0056112764 0.0068218451 -0.0058110871 0.0036086134 -0.0048149513 0 0 0 67 -1 7.25
TSP BP 8.4403986 9.0559653 -1.0485973 -0.31993569 0.18707113 -5.5512429 0.5 -6.0480576 8.993709 0.092294047 0.38088187 0.85116033 -0.082629161 1 10 0 0
TSP BP 6.9641389 12.214695 18.077512 0 0 -1.065 0.5 0 0 0 0 0 0 1 10 0 0
TSP BP 11.200916 8.5150782 4.5649029 -0.34846769 -0.0051659538 -4.0567726 0.5 -3.748574 -9.122454 -0.38863512 -1.1489002 0.3477925 -0.39551375 1 10 0 0
TSP BP 6.024371 8.6716014 2.1468063 -0.96268579 0.17698024 -4.5605918 0.5 -10.827209 8.0977972 -2.3212011 -0.46908323 -0.080705173 -0.17683058 1 10 0 0
TSP BP 4.3105895 13.627748 17.980977 0 0 -1.065 0.5 0 0 0 0 0 0 1 10 0 0
TSP BP 14.767537 11.231901 17.06164 0.026009689 0.14833489 -1.1970921 0.5 0.23796302 -0.041725477 -9.4861595e-18 0.33200371 -0.058214983 -1.3500355e-17 1 10 0 0
TSP BP 14.231514 15.251453 15.668232 -0.38719987 -0.17977287 -2.1167114 0.5 0.059355882 0.0014449194 -0.19757814 0.27358275 -0.11440413 -0.36177615 1 10 0 1 -0.0050543921 -0.0055621969 -0.01061001 0.0025562468 -0.0010114334 0.0011549717 0 0 0 -1 0 8.95
TSP BP 12.767021 9.3695802 7.6883449 0.76405811 0.26860566 -3.0643758 0.5 -2.1481412 -13.239992 -1.4530107 0.55894302 -1.4477378 0.63707442 1 10 0 0
TSP BP 7.9673259 11.449098 -2.1462935 -0.52898992 -0.062252909 -5.6507144 0.5 8.8701738 3.9643476 2.4529029 0.29689916 0.57505256 0.35705869 1 10 0 1 -0.0006147033 0.0056941548 -0.00064413675 0.0022634338 0.00030990959 0.002055178 0 0 0 40 -1 7.98
TSP BP 12.002314 9.0389299 6.2037236 0.35201253 0.32967218 -3.5483305 0.5 -3.8112191 -9.8024849 -0.38029537 -0.51658539 -0.92051985 -0.3967273 1 10 0 0
TSP BP 8.0828814 8.7115104 16.975622 0.088012859 -0.041462233 -1.2265154 0.5 -0.033319952 -0.070729047 -2.8905458e-17 -0.12897723 -0.27378301 -1.2592988e-16 1 10 0 0
TSP BP 7.4430183 10.147901 2.5275996 -0.093526722 0.19950782 -4.5700653 0.5 -1.13625 9.5241871 0.041866913 -0.079305361 -0.57676105 0.4417465 1 10 0 0
TSP BP 8.9877042 11.920381 -0.69011434 -0.12225839 0.41829329 -5.3239986 0.5 9.0156629 3.1815055 -0.90850765 0.11284694 -0.22210174 0.056782202 1 10 0 0
TSP BP 5.7605974 10.413836 0.19293055 -0.84756044 0.15940418 -5.1185257 0.5 2.386557 11.725884 -0.59502074 0.44568693 1.3271748 -0.55712121 1 10 0 0
TSP BP 5.6344175 5.9022642 17.603995 0 0 -1.135 0.5 0 0 0 0 0 0 1 10 0 0
TSP BP 12.901464 4.3633938 17.677578 0 0 -1.135 0.5 0 0 0 0 0 0 1 10 0 0
TSP BP 8.0466536 12.08959 4.6680814 -0.80319064 -0.22924507 -4.1021608 0.5 15.994209 3.2004131 -0.50210746 1.7237622 0.21764454 -0.25244356 1 10 0 0
TSP BP 10.170013 12.32937 1.7361395 -0.033407833 0.070773413 -4.7512698 0.5 13.188593 -4.4176879 0.15395065 0.76196126 -0.34278541 0.24104104 1 10 0 0
TSP BP 1.8749643 8.014008 18.072881 0 0 -1.175 0.5 0 0 0 0 0 0 1 10 0 0
TSP BP 4.4836682 7.4550302 17.160933 0 0 -1.175 0.5 0 0 0 0 0 0 1 10 0 0
TSP BP 8.8004425 11.175651 -4.1905108 -0.10618017 0.011111858 -6.2282132 0.5 0.80483009 0.72148694 0.4605949 -0.30785104 -0.26688385 -0.32608534 1 10 0 0
TSP BP 4.9094158 10.322046 17.697826 0 0 -1.255 0.5 0 0 0 0 0 0 1 10 0 0
TSP BP 10.703628 12.187614 4.6106139 -0.30388845 0.15852735 -4.2367812 0.5 9.7499864 -7.6278924 -0.52549572 0.44608253 -0.36295095 0.14321891 1 10 0 0
TSP BP 9.0359885 7.6755799 5.0036592 0.10250043 -0.26752313 -3.9331339 0.5 -10.575622 4.9352787 0.34343518 -0.47484481 0.38341479 -0.21975 1 10 0 0
TSP BP 12.041886 11.186965 0.26557137 -0.043691838 0.54635335 -4.9536393 0.5 3.7770685 -6.4247732 -0.36708409 0.48096847 0.65732846 0.39552195 1 10 0 0
TSP BP 8.5176826 8.7656398 6.5204818 -0.29154936 -0.46572034 -3.4146975 0.5 -7.0613563 12.971953 -1.0660156 0.4595723 1.6144361 -0.69346644 1 10 0 0
TSP BP 7.1437956 5.5597114 18.093646 0 0 -1.255 0.5 0 0 0 0 0 0 1 10 0 0
TSP BP 11.832403 14.005135 -0.66162755 0.56469489 0.67235119 -5.3414153 0.5 6.9971255 -1.6148371 5.3456186 -0.075082773 0.41940458 1.6723006 1 10 0 0
TSP BP 10.141038 7.9255551 -3.0087602 -0.23068281 -0.2573863 -5.6487364 0.5 -8.1696325 -8.4602855 -1.3796405 -1.0874612 -0.95004538 -0.72945917 1 10 0 0
TSP BP 13.396395 2.4607543 17.81981 -0.29253456 0.64936195 -0.20552588 0.5 -0.095976284 -0.043236872 1.282198e-18 -1.6810447 -0.75730289 3.9008032e-18 1 10 0 1 -0.0044095918 0.0097883174 -0.015182599 -0.00073526153 0.0016321178 -0.0025315679 0 0 0 -1 0 8.95
TSP BP 7.6308396 9.689548 0.38783888 -0.18201965 0.26708542 -5.1060071 0.5 -1.3949287 -4.0715418 -0.63818434 -1.0868372 0.46120187 -0.253668 1 10 0 0
TSP BP 11.597994 7.5096464 16.944576 -0.017213117 -0.0023037609 -1.3817147 0.5 -0.0017412932 0.013010501 5.2157932e-18 -0.0048100034 0.035939125 1.3494463e-17 1 10 0 0
TSP BP 10.529072 11.647623 -2.7413206 -0.04252643 0.11226131 -5.6136202 0.5 -0.76729331 5.2281631 0.69648711 0.12247067 0.76016429 0.19276277 1 10 0 1 -3.6424613e-05 8.5480959e-06 -0.0013613379 -0.00010388818 1.4318202e-05 8.1364641e-05 0 0 0 71 -1 7.08
TSP BP 4.3909058 15.533663 17.986658 0.0090698716 -0.39130719 -1.2369921 0.5 0.045968732 -0.08443345 -0.28466066 0.10784836 -0.19662201 -0.66246964 1 10 0 1 -0.0027016515 0.0010660838 -0.00016386282 0.00041005476 -0.00053714413 -0.001753334 0 0 0 7 -1 8.57
TSP BP 11.053109 10.091611 0.22095693 -0.096813532 -0.035243608 -5.3360425 0.5 0.86510478 -7.7487023 -0.24446851 -0.15416107 -0.42841836 -0.10730593 1 10 0 0
TSP BP 7.7426198 9.72983 5.6109208 -0.38664201 -0.3707069 -3.9366503 0.5 3.9462195 10.476026 -3.5516552 0.39693819 -0.24409307 -0.31802624 1 10 0 0
TSP BP 12.587853 9.82967 -0.46784119 0.14261426 0.16369621 -5.1931442 0.5 -2.1214312 3.2747806 2.4430392 -0.76815298 0.65184211 0.85896753 1 10 0 1 0.001940562 0.00076995946 -0.00017709965 -0.0014961712 0.0014393685 -0.0040155824 0 0 0 105 -1 7.63
TSP BP 7.6356513 10.313756 7.0101428 -0.010413671 -0.087727791 -3.6153926 0.5 -0.51447963 10.475474 0.60287151 -0.57817739 1.5502823 -1.0997947 1 10 0 0
TSP BP 11.735954 2.2671076 17.318098 -0.13695784 0.61008544 -0.35974469 0.5 -0.068572726 -0.015393865 3.4347716e-19 -1.5919775 -0.35738241 1.2687215e-17 1 10 0 1 -0.0040045895 0.01783864 -0.025855515 0.00021017163 -0.00093621985 0.001356967 0 0 0 -1 0 8.95
TSP BP 12.172015 10.571441 7.3556959 0.2138629 0.5441493 -3.0370154 0.5 0.29559486 -12.957536 0.19428542 0.086877342 -0.71923683 0.80310298 1 10 0 0
TSP BP 12.187966 9.1523422 0.59248724 0.12388076 -0.26592861 -5.2077028 0.5 -1.5740011 -3.9594486 0.59388703 -1.0044389 0.17930023 -0.10957185 1 10 0 1 -0.00055120807 -0.00042244775 0.0012752802 0.00015327442 0.00021496669 0.00013680363 0 0 0 115 -1 7.33
TSP BP 10.906906 9.0220258 -0.39470177 -0.13097768 -0.20119724 -5.4162352 0.5 -0.72905946 1.5627092 0.12270745 0.02171861 0.04013742 -0.25510077 1 10 0 1 -0.000177995 -3.9690966e-05 0.00010160722 0.001436309 -0.00041217069 0.00040253483 0 0 0 115 -1 7.64
TSP BP 12.72824 7.5046077 -2.4583924 0.49867723 -0.35542791 -5.7578965 0.5 -0.030857445 3.5130462 -1.0780938 -0.60088873 0.5251931 0.19698108 1 10 0 0
TSP BP 8.0562707 6.2218153 17.805657 0 0 -1.325 0.5 0 0 0 0 0 0 1 10 0 0
TSP BP 10.503739 9.1085054 -2.6753169 0.22344326 0.22199537 -5.977172 0.5 -3.7774556 -1.3535013 -3.6844262 -1.2174286 -0.064364019 -0.42636248 1 10 0 1 -0.0018941487 0.0023312406 -0.0031495774 -0.00089953524 -0.00024945965 0.00034312124 0 0 0 109 -1 8.16
TSP BP 17.047457 6.3919727 18.029299 0 0 -1.325 0.5 0 0 0 0 0 0 1 10 0 0
TSP BP 16.392984 9.7904459 17.479365 0 0 -1.325 0.5 0 0 0 0 0 0 1 10 0 0
TSP BP 11.704633 12.090595 7.9866517 -0.13293119 0.053351418 -3.0064532 0.5 7.1627128 -12.829045 0.86259488 0.75476541 -1.49789 0.50263803 1 10 0 0
TSP BP 7.8344859 7.7760193 -2.5932247 -0.25466275 -0.3951114 -5.6782295 0.5 2.6430058 -0.94318306 0.19121937 0.41144968 0.12276186 -0.32551281 1 10 0 1 0.00096013261 0.0043174522 -0.00159191 2.6135097e-05 -0.00054976053 0.00041402413 0 0 0 14 -1 6.22
TSP BP 8.8007531 13.727096 16.841531 0 0 -1.325 0.5 0 0 0 0 0 0 1 10 0 0
TSP BP 12.191788 12.017295 4.5376964 0.33284504 0.19447479 -4.1110771 0.5 2.6582616 -3.8682763 -0.41014813 -0.22517847 -0.24602445 -0.09186918 1 10 0 1 5.4357555e-05 0.00054624622 -0.00039317795 0.00014909498 0.00034286374 0.00028810091 0 0 0 103 -1 8.12
TSP BP 10.423095 8.7831179 6.6744347 0.029692917 0.19454311 -3.4241793 0.5 -7.7227922 -5.6878581 -0.29422355 -0.93459021 1.0837966 -0.77144729 1 10 0 0
TSP BP 9.4418915 10.328182 -2.7283603 -0.39630633 0.091711991 -5.7223831 0.5 0.23761622 1.4977498 1.6626527 0.22362217 0.059986673 0.63366662 1 10 0 0
TSP BP 7.7406872 6.6862765 3.7019084 -0.35343754 -0.71104365 -4.2305784 0.5 -4.5497934 4.5205642 -1.2473683 -0.30902688 0.23306675 0.93705645 1 10 0 1 -0.00034130868 0.0043017784 0.0038363054 0.00031765997 -0.0037227692 -0.0033395765 0 0 0 104 -1 7.19
TSP BP 8.2450679 7.6544642 16.874472 0 0 -1.325 0.5 0 0 0 0 0 0 1 10 0 0
TSP BP 8.9692638 10.547076 17.947414 0 0 -1.335 0.5 0 0 0 0 0 0 1 10 0 0
TSP BP 10.784598 17.79985 17.380974 -0.061832486 -0.61468915 -0.38490075 0.5 0.51684546 -0.051990245 -8.6841317e-18 1.6219221 -0.16315153 -2.7142566e-17 1 10 0 1 -0.00018831467 -0.0018720739 -0.0026608732 -0.00034956558 -0.0034751015 -0.0049393373 0 0 0 -1 0 8.71
TSP BP 8.8534175 9.9044459 1.2594305 -0.35080266 0.24816427 -4.9987856 0.5 -1.069634 -0.42691151 0.37465534 -0.75831683 -0.1396268 -0.12189014 1 10 0 0
TSP BP 8.2642519 8.8649562 3.0509256 -0.091206705 -0.040160809 -4.6869455 0.5 -2.5888381 4.427609 1.3382894 0.094401308 0.50464978 -0.12713283 1 10 0 0
TSP BP 11.135376 7.411741 9.6124185 0.3785983 0.21592208 -1.8768177 0.5 -11.09304 -2.6616386 1.6637367 -1.081224 -0.57244241 -0.036673721 1 10 0 1 -0.0027116887 -0.00042519463 0.0067237081 0.00028310771 -0.0003342839 -0.0043402649 0 0 0 -1 0 8.76
TSP BP 9.8486826 11.262376 -0.69061802 -0.13589668 0.25080833 -5.3314156 0.5 -0.74806455 0.10116418 0.031107649 0.11954137 0.10163091 -0.21355686 1 10 0 1 0.00021307417 0.00038723021 2.7142599e-05 0.00050409482 0.00093226501 0.0011288747 0 0 0 93 -1 7.9
TSP BP 8.5193092 7.7636198 9.7553738 0.78659336 0.034473247 -1.3793039 0.5 -10.648281 5.1288512 0.15362665 -1.335502 1.7672413 1.3560454 1 10 0 0
TSP BP 7.764292 7.7110165 10.713612 0.24437754 0.32761769 -1.2566433 0.5 -7.9796992 10.295177 -1.1939027 -0.23918083 -0.35017826 0.028268015 1 10 0 0
TSP BP 8.8437428 13.004729 10.667281 0.58108427 -0.89690345 -1.6081303 0.5 13.110065 6.4156648 0.59422962 1.3737536 1.0136342 0.54087928 1 10 0 1 -0.0003915521 -0.013390977 -0.017473851 -0.0006193787 0.00033037093 0.00075085933 0 0 0 -1 0 8.95
TSP BP 9.3447444 8.6872498 -2.750881 0.068115607 -0.33013245 -5.7167255 0.5 0.27134291 -1.4543182 -0.30246515 -0.5469333 -0.80509193 -0.26641643 1 10 0 1 -0.0013787011 -7.6966815e-05 0.00071228414 4.914894e-05 -0.00041586556 -0.00038986212 0 0 0 23 -1 7.14
TSP BP 8.782552 9.9286904 -0.14139318 -0.24575427 0.14107695 -5.3481806 0.5 -0.56520734 0.80166585 0.36163758 0.032863524 -0.35489245 0.021702624 1 10 0 0
TSP BP 10.75799 12.67707 8.2166978 -0.018172791 0.26388834 -2.676699 0.5 9.3538802 -3.0819967 -0.46959202 1.377528 -0.8684677 -0.0064719056 1 10 0 0
TSP BP 10.480271 10.636807 1.5588042 0.14374866 0.1128869 -5.1093235 0.5 -0.2701158 0.065699558 2.8958411 -0.17192568 -0.49308806 0.66557629 1 10 0 0
TSP BP 8.0485308 8.556903 8.4998697 -0.023438752 0.21431554 -2.1832935 0.5 -7.3773511 6.7949737 -1.0184067 -0.90772784 1.0550719 0.30162266 1 10 0 0
TSP BP 8.4611942 10.99109 -0.64141855 -0.056252494 0.31501035 -5.4215824 0.5 -1.4723158 -1.5551201 -0.22129336 -0.17127875 -0.024665547 -0.083052453 1 10 0 1 8.6188433e-05 -4.0202679e-06 0.00024987424 0.00084148779 -0.00096304075 -0.0013424806 0 0 0 93 -1 7.5
TSP BP 9.1115089 9.0404917 4.604863 -0.20360401 -0.032910648 -4.3021424 0.5 3.2079658 -0.94961208 -1.4900804 0.14206508 -0.031821619 -0.19025726 1 10 0 0
TSP BP 9.6133528 10.235487 0.34821295 -0.2034009 0.33247175 -5.2065448 0.5 -1.3954084 1.9142752 1.3936659 -0.43090691 0.25393598 0.14238021 1 10 0 1 5.7122031e-05 3.0132434e-05 -0.00011718488 -0.00098088598 -0.0012324259 0.0024480908 0 0 0 146 -1 8.87
TSP BP 9.9411027 12.147588 7.9038392 -0.17780839 0.18939324 -3.0560897 0.5 4.6568143 0.33196167 1.8889973 -0.42715018 -0.01899508 0.25118444 1 10 0 1 0.0010779577 -0.00038387175 -0.0023838238 0.00040643031 0.0028270032 -0.0064736314 0 0 0 147 -1 8.86
TSP BP 12.387454 8.8586604 3.3140712 0.16525271 -0.18001296 -4.5817398 0.5 -1.188297 -7.2081082 -2.1628529 -0.42645956 -0.30953343 -0.38829183 1 10 0 1 -0.00079203774 0.00090098466 0.00013971727 -0.0018282193 0.00046618326 -0.0012345493 0 0 0 83 -1 7.72
TSP BP 7.7480243 8.3806829 9.9591465 0.55605219 0.26997672 -1.9370725 0.5 -7.1786308 10.584631 -2.7415816 0.1839 0.12603671 0.48772346 1 10 0 1 0.00034191219 0.00056293969 0.00049933712 0.001649107 -0.00074727984 -0.00073228646 0 0 0 143 -1 8.93
TSP BP 11.851514 9.6823643 1.8564195 0.32199944 -0.01736823 -5.1538372 0.5 -0.66556808 3.0347743 -0.76334903 0.18912835 0.7231833 0.10206625 1 10 0 0
TSP BP 10.292892 12.631613 3.1784465 0.051216589 0.3323849 -4.4915947 0.5 -1.4790513 2.305005 0.13966252 0.65641605 0.13254938 0.040487679 1 10 0 0
TSP BP 11.086171 11.773934 2.1292333 0.046299431 0.23836244 -5.1073814 0.5 -4.8140812 3.0559477 0.35415418 -1.0814141 1.2775829 0.38582333 1 10 0 0
TSP BP 9.6576511 12.594082 0.7523072 0.051241618 0.11282995 -4.8202091 0.5 0.94540805 2.2647468 -1.1333234 0.32526476 0.50475492 -0.091691652 1 10 0 1 0.00045066879 -0.00023039028 -0.0028401737 -0.00022056642 0.00042513925 0.00063472872 0 0 0 16 -1 7.32
TSP BP 10.657797 9.7554208 -1.8131238 -0.076665128 0.041198675 -5.7566782 0.5 -0.7253855 -1.2735889 1.6584865 -0.093253153 -0.59590013 0.066009318 1 10 0 1 0.0016882731 -0.0021867258 -0.00098764437 0.0010183404 -0.0019128283 0.00020198257 0 0 0 32 -1 8.74
TSP BP 12.665537 10.585919 8.277163 -0.044808584 0.62821079 -3.2389405 0.5 2.197696 -12.822877 -1.5462132 -0.46572695 -0.60153862 -0.20799189 1 10 0 0
TSP BP 7.6883654 10.940902 6.0404138 -0.63300134 0.22632024 -4.0205744 0.5 4.8477345 5.4792912 -2.430423 0.13559962 0.97851866 -0.90125637 1 10 0 0
TSP BP 9.600503 12.399085 4.7702042 -0.25562427 0.095299782 -4.0839861 0.5 7.3930832 0.50168099 2.2755863 1.1104136 -0.20877237 1.006839 1 10 0 0
TSP BP 12.606215 10.814532 2.4467898 0.12670589 0.44509597 -4.5943756 0.5 -0.16472966 -1.0885375 0.3014196 -0.35032408 0.027142637 0.31625519 1 10 0 0
TSP BP 8.4121239 11.161563 7.2518919 0.4577529 0.2937229 -3.5287875 0.5 4.9003512 6.5306549 -0.33620576 -0.096862793 -0.12238453 0.37112909 1 10 0 1 0.0034877278 -0.0014109815 -0.0054850735 0.0056487982 -0.0032631671 -0.0055591263 0 0 0 118 -1 8.65
TSP BP 8.6116039 11.286155 0.44190482 -0.21824131 0.17032524 -5.2861643 0.5 -2.7545469 -3.8080525 -1.1881669 0.2526846 -0.54398185 0.13477392 1 10 0 1 0.00016821531 0.00011071742 -0.0010996581 0.00013087924 8.556328e-05 -0.0014884352 0 0 0 16 -1 8.92
TSP BP 9.0500407 12.457834 7.5353745 -0.25062224 0.21838997 -3.0385757 0.5 11.405039 2.0101124 1.1847924 1.3895243 -0.052590573 1.1597047 1 10 0 0
TSP BP 9.3800055 10.131044 -1.4895086 -0.16028687 0.12520361 -5.5374775 0.5 -2.4644856 0.94853382 -0.3554698 -0.49057992 0.24703413 -0.34378093 1 10 0 1 -5.699187e-05 -0.00030995635 0.00041692555 -0.00056651491 -0.0012187509 -0.0027075765 0 0 0 160 -1 6.88
TSP BP 13.109112 9.6319165 10.575884 -0.74284182 0.10252982 -1.1230279 0.5 -5.3552334 -11.122272 -0.3675109 -1.6123088 -1.2117522 0.64725451 1 10 0 1 0.0012946838 0.00029386803 0.0017693498 -0.0026330802 0.0014299841 -0.0039356914 0 0 0 -1 0 8.95
TSP BP 9.0829926 11.483482 6.0298937 -0.29902074 0.034310335 -3.8987069 0.5 5.1041159 1.1232736 -1.26303 0.75243552 -0.13769733 -0.078213057 1 10 0 0
TSP BP 7.9259045 10.133094 -2.2687957 -0.46074932 -0.38277874 -5.668188 0.5 -0.93534664 0.033571661 -1.0722881 -0.17750046 -0.29345689 -0.81117519 1 10 0 1 -0.002847873 0.00035780549 -0.00032055768 0.0044351027 -0.00032075278 -0.0017481499 0 0 0 89 -1 7.92
TSP BP 8.1028671 13.180324 11.406484 1.1413008 -0.039275659 -0.17803713 0.5 10.355116 8.9053879 1.5318234 2.7480723 1.9664863 -0.85456676 1 10 0 1 -0.00029526518 -0.0033076812 -0.0037861803 0.003311779 -0.0067237698 -0.010561209 0 0 0 -1 0 8.93
TSP BP 11.252431 12.479128 10.278255 -0.87319357 -0.77403206 -2.0899174 0.5 9.9744052 -3.5208003 -0.76118388 -1.0342356 0.52809513 0.15000205 1 10 0 0
TSP BP 10.041552 8.9753503 1.2695489 -0.28588442 0.12774054 -5.0913464 0.5 -0.16701873 1.2683642 -0.2208582 0.40858602 0.2807444 0.14788384 1 10 0 1 0.0077220041 0.00041538072 0.011547606 -0.00052924247 0.00078860368 -0.0014403072 0 0 0 59 -1 8.95
TSP BP 9.2643048 7.5618339 9.1238013 0.20813347 0.1665061 -2.5664271 0.5 -5.9129712 0.21601173 -1.5044474 0.28399682 1.3869295 0.34617159 1 10 0 1 -0.00019099628 0.0013373172 -0.00065256656 -0.00013075385 -0.00097986886 0.00015874137 0 0 0 142 -1 8.95
TSP BP 8.0461696 12.064465 9.7153566 -0.18697024 -0.1827381 -1.9220298 0.5 8.0529748 6.8725183 -0.11391488 1.1515766 1.3053891 0.26632416 1 10 0 1 0.001540387 0.00056532984 0.0036177467 -0.00015337969 0.0013862143 -0.0057788592 0 0 0 -1 0 8.85
TSP BP 12.150183 12.071955 10.330979 -0.53353193 -0.46788171 -1.4427484 0.5 11.415276 -6.7536457 0.79478328 0.082705447 -0.66517131 0.46457758 1 10 0 2 -0.0017070085 -0.0046091661 -0.0065294837 0.00016413809 0.00042774498 0.00071479362 0 0 0 173 -1 8.95 -0.012540141 -0.0097264222 -0.022315047 -0.002168714 0.0062444978 0.0039176046 0 0 0 -1 0 8.95
TSP BP 12.681243 9.714319 8.9654678 0.042796484 0.60435901 -2.5157878 0.5 -6.7790692 -8.642625 0.36306087 -0.33463536 -0.94219953 0.34713534 1 10 0 0
TSP BP 6.4597856 12.08277 1.7034992 -0.85192958 0.73019241 -4.9530925 0.5 -0.47434974 1.1917948 0.00051777334 -0.22471181 0.9560815 0.058323711 1 10 0 0
TSP BP 10.920818 9.3513933 5.8576233 0.062538333 0.17803065 -3.7883915 0.5 -3.712337 -6.2844266 0.69328856 0.30203573 0.14074344 0.14158683 1 10 0 0