restart_version 3
name chute_periodic
xmin 0 xmax 0.005 ymin 0 ymax 0.003 zmin 0 zmax 0.006
dt 8e-06 t 0.100008 tmax 0.1 save_count_data 127 save_count_ene 127 save_count_stat 1000000 save_count_fstat 1000000
dim 3 gravity 4.141659 0 -8.8818163
options_fstat 1 options_data 1 options_ene 1 options_restart 1
Species 1
k 38.953383 disp 0.00070102614 kt 11.129538 dispt 0.00070102614 mu 0.5 rho 2400 dim_particle 3
Walls 0
Boundaries 2
PeriodicBoundary normal 0 1 0 position_left 0 position_right 0.003 shift 0 0.003 0
PeriodicBoundary normal 1 0 0 position_left 0 position_right 0.005 shift 0.005 0 0
Particles 107
TSP BP 0.0034975064 0.00023136582 -0.00091408618 0 0 0 0.0005 0 0 0 0 0 0 0 0 0 0
TSP BP 0.0010893296 0.00092742971 -0.00025754141 0 0 0 0.0005 0 0 0 0 0 0 0 0 0 0
TSP BP 0.0022271484 0.0010710691 -0.00011162727 0 0 0 0.0005 0 0 0 0 0 0 0 0 0 0
TSP BP 0.0036253474 0.00096012629 -0.00024694627 0 0 0 0.0005 0 0 0 0 0 0 0 0 0 0
TSP BP 0.0042428935 0.0001779668 -0.00026055779 0 0 0 0.0005 0 0 0 0 0 0 0 0 0 0
TSP BP 0.0040891384 0.001817317 -0.00018784071 0 0 0 0.0005 0 0 0 0 0 0 0 0 0 0
TSP BP 0.0015736313 0.0018172185 -0.00013592145 0 0 0 0.0005 0 0 0 0 0 0 0 0 0 0
TSP BP 0.0034714902 0.0025759835 -0.00014638947 0 0 0 0.0005 0 0 0 0 0 0 0 0 0 0
TSP BP 0.00095835639 0.0025708616 -0.00016582571 0 0 0 0.0005 0 0 0 0 0 0 0 0 0 0
TSP BP 0.0030078328 0.0024152602 -0.0009611292 0 0 0 0.0005 0 0 0 0 0 0 0 0 0 0
TSP BP 0.0028545642 0.00031194847 -0.00015859528 0 0 0 0.0005 0 0 0 0 0 0 0 0 0 0
TSP BP 0.002384693 0.00011869844 -0.00099531642 0 0 0 0.0005 0 0 0 0 0 0 0 0 0 0
TSP BP 0.00033307009 0.00030432971 -0.00023338452 0 0 0 0.0005 0 0 0 0 0 0 0 0 0 0
TSP BP 0.0036008712 0.0015871587 -0.0009875538 0 0 0 0.0005 0 0 0 0 0 0 0 0 0 0
TSP BP 0.00033322558 0.00096907267 -0.00096324647 0 0 0 0.0005 0 0 0 0 0 0 0 0 0 0
TSP BP 0.0048282595 9.5380918e-05 -0.0010290638 0 0 0 0.0005 0 0 0 0 0 0 0 0 0 0
TSP BP 0.0017537584 0.00090285709 -0.00097224848 0 0 0 0.0005 0 0 0 0 0 0 0 0 0 0
TSP BP 0.00043510455 0.002402774 -0.0010147309 0 0 0 0.0005 0 0 0 0 0 0 0 0 0 0
TSP BP 0.004692528 0.0010759607 -0.00019456875 0 0 0 0.0005 0 0 0 0 0 0 0 0 0 0
TSP BP 0.0023553438 0.0024510382 -0.00022057604 0 0 0 0.0005 0 0 0 0 0 0 0 0 0 0
TSP BP 0.0028608392 0.0010152222 -0.00091604835 0 0 0 0.0005 0 0 0 0 0 0 0 0 0 0
TSP BP 0.0022543894 0.001715473 -0.00085304385 0 0 0 0.0005 0 0 0 0 0 0 0 0 0 0
TSP BP 0.0047183833 0.0017381624 -0.00095799742 0 0 0 0.0005 0 0 0 0 0 0 0 0 0 0
TSP BP 0.0017546204 0.00020205071 -0.00025353196 0 0 0 0.0005 0 0 0 0 0 0 0 0 0 0
TSP BP 0.0040858063 0.0025038331 -0.00094800851 0 0 0 0.0005 0 0 0 0 0 0 0 0 0 0
TSP BP 0.0042198835 0.00087653716 -0.0010414863 0 0 0 0.0005 0 0 0 0 0 0 0 0 0 0
TSP BP 0.0016180706 0.0024896524 -0.00088153935 0 0 0 0.0005 0 0 0 0 0 0 0 0 0 0
TSP BP 0.0048523843 0.0024448234 -0.00025011247 0 0 0 0.0005 0 0 0 0 0 0 0 0 0 0
TSP BP 0.00047959389 0.0016797413 -0.00025675926 0 0 0 0.0005 0 0 0 0 0 0 0 0 0 0
TSP BP 0.0030083473 0.0016949108 -0.00023637805 0 0 0 0.0005 0 0 0 0 0 0 0 0 0 0
TSP BP 0.0011039513 0.0016144807 -0.00099120681 0 0 0 0.0005 0 0 0 0 0 0 0 0 0 0
TSP BP 0.00099883482 0.00021141082 -0.00095270919 0 0 0 0.0005 0 0 0 0 0 0 0 0 0 0
TSP BP 0.0019184347 0.0016110898 0.0017437225 0.023308099 -0.0046949299 0.011126325 0.0005 -2.2306432 -2.0081614 -2.6287998 -61.00746 37.458118 14.625547 795774.72 7.9577472e+12 0 0
TSP BP 0.0011340702 0.0011540849 0.00071332288 0.014947953 0.0034659584 -0.008112052 0.0005 0.87293683 2.2482354 -0.73502707 -21.029224 2.0122588 -12.243588 795774.72 7.9577472e+12 0 1 2.7254823e-06 -9.1582494e-07 8.820692e-08 0 0 0 0 0 0 1 -1 0.100008
TSP BP 0.0033328356 0.0027501165 0.0008221768 0.012473181 0.00090202038 -0.002263116 0.0005 -0.18102948 1.103884 1.5698528 13.813818 15.54408 35.368757 795774.72 7.9577472e+12 0 1 1.2431826e-06 3.8115063e-06 -5.0728191e-07 0 0 0 0 0 0 7 -1 0.100008
TSP BP 0.0038766118 0.0019013803 0.00078504338 0.013850933 -0.00084585958 0.0054493645 0.0005 0.31321227 -0.35189974 -0.51247292 44.141262 3.8997676 23.896953 795774.72 7.9577472e+12 0 1 -3.3586926e-07 -5.4021255e-07 -2.6692889e-08 0 0 0 0 0 0 5 -1 0.100008
TSP BP 0.00014568383 0.0022248057 0.0015390154 0.02611633 0.025265843 0.025080482 0.0005 0.064161129 0.61427311 0.2552673 -18.48613 46.837634 -8.4355446 795774.72 7.9577472e+12 0 0
TSP BP 0.0026460488 0.0018911041 0.0024591575 0.072819335 0.011058318 0.019240049 0.0005 0.72464129 0.293591 -0.67550342 -6.4588067 4.0764311 -29.628624 795774.72 7.9577472e+12 0 0
TSP BP 0.0021193494 0.0011525325 0.00087864873 0.011802639 -0.0025302089 0.0073401556 0.0005 2.8563869 3.5527859 0.26125978 11.034267 22.32279 3.2492796 795774.72 7.9577472e+12 0 3 1.728731e-08 3.5504334e-09 -1.0299246e-07 0 0 0 0 0 0 33 -1 0.100008 -2.9372439e-07 -6.4573483e-07 2.7407241e-07 0 0 0 0 0 0 32 -1 0.100008 5.8015277e-07 -5.5820925e-07 1.0907412e-07 0 0 0 0 0 0 2 -1 0.100008
TSP BP 0.0036084698 0.0016459917 0.002623045 0.075634646 0.0024111075 0.019192433 0.0005 3.0229303 3.0255592 0.81514176 -10.127779 -25.626231 14.203332 795774.72 7.9577472e+12 0 0
TSP BP 0.0045018964 0.0011955012 0.0011153262 0.023935031 0.0016735038 -0.0008467589 0.0005 -2.2006022 -1.1975744 -1.2624758 -23.051697 -6.2036569 -7.0336753 795774.72 7.9577472e+12 0 1 5.4819073e-07 -4.3659297e-08 -1.1311317e-06 0 0 0 0 0 0 35 -1 0.100008
TSP BP 7.622617e-05 0.0013282698 0.0020428944 0.044748207 -0.0010328962 -0.016991615 0.0005 2.1597168 0.65405386 -1.4661863 47.510187 49.649243 -14.575595 795774.72 7.9577472e+12 0 0
TSP BP 0.0016094719 0.0018843845 0.0026681256 0.063582092 0.029811236 0.0078678453 0.0005 -1.0339873 1.3954765 0.80410272 -48.504442 24.689089 4.4691939 795774.72 7.9577472e+12 0 0
TSP BP 0.0028885974 0.0017770939 0.00075058007 0.011350059 -0.0029130368 0.0024380449 0.0005 0.33264026 -1.4481637 1.0063107 -13.851175 -13.080396 -4.9418112 795774.72 7.9577472e+12 0 3 -3.2672253e-07 2.8239452e-06 -8.1743319e-07 0 0 0 0 0 0 35 -1 0.100008 8.7673977e-07 -9.2194376e-07 7.7005404e-07 0 0 0 0 0 0 38 -1 0.100008 2.5115095e-06 -1.3933299e-06 4.2074846e-07 0 0 0 0 0 0 29 -1 0.100008
TSP BP 0.00028337132 0.0016758898 0.00071793609 0.0078575552 0.0067145342 -0.011211012 0.0005 -0.549833 2.5557112 0.96505636 -10.769445 18.102584 18.044754 795774.72 7.9577472e+12 0 4 2.4469847e-06 7.4232954e-07 4.9555247e-07 0 0 0 0 0 0 28 -1 0.100008 8.5050601e-08 -2.2850168e-08 1.3963093e-07 0 0 0 0 0 0 40 -1 0.100008 -4.3961244e-07 -6.904695e-07 -2.9670186e-06 0 0 0 0 0 0 33 -1 0.100008 -2.8334627e-06 8.7323668e-07 -1.0589305e-06 0 0 0 0 0 0 36 -1 0.100008
TSP BP 0.00063160899 0.0026138918 0.00076383892 0.012191558 0.0085071723 -0.0012492691 0.0005 -0.79746258 0.44988257 0.29571702 -18.917963 -11.132029 18.830292 795774.72 7.9577472e+12 0 2 8.8950859e-06 4.4150907e-06 2.9219826e-06 0 0 0 0 0 0 8 -1 0.100008 2.9081611e-06 2.2617109e-06 2.9582282e-06 0 0 0 0 0 0 36 -1 0.100008
TSP BP 0.0014413886 0.00010758082 0.0023479109 0.042282706 0.031790673 -0.0095365839 0.0005 2.2802398 0.53695429 -0.60960661 52.072966 24.17529 -78.568848 795774.72 7.9577472e+12 0 0
TSP BP 0.0021385749 0.0023336996 0.0010894431 0.0022900045 -0.012821578 -0.0034500535 0.0005 -0.59836403 -0.031449353 0.14473502 50.209313 -11.478254 10.047656 795774.72 7.9577472e+12 0 2 -1.2878162e-06 -1.7688349e-06 5.5044045e-08 0 0 0 0 0 0 43 -1 0.100008 -1.084031e-07 -2.619286e-07 -3.2575689e-07 0 0 0 0 0 0 32 -1 0.100008
TSP BP 0.0031342852 0.00078221478 0.002470013 0.079058991 0.010500288 0.0083234273 0.0005 1.6227819 5.0027146 1.3412792 34.452346 67.188455 -14.85475 795774.72 7.9577472e+12 0 1 3.680083e-06 -1.8429678e-06 -1.0006133e-06 0 0 0 0 0 0 39 -1 0.100008
TSP BP 0.0041002005 0.0003779394 0.00070718242 0.010433821 0.0076341809 -0.00021233706 0.0005 0.13549394 0.80420308 -2.0633354 17.148862 6.6797612 -25.864262 795774.72 7.9577472e+12 0 3 -6.9440327e-07 2.9145149e-07 9.9620062e-08 0 0 0 0 0 0 40 -1 0.100008 1.5244284e-06 1.1629911e-06 -1.5542545e-08 0 0 0 0 0 0 4 -1 0.100008 9.6583186e-07 -6.4552069e-07 2.9207756e-06 0 0 0 0 0 0 34 -1 0.100008
TSP BP 0.0032153473 0.00084088919 0.00065218906 0.0064276713 -0.0012938672 0.0041674405 0.0005 -0.055722185 1.2649913 1.9368783 12.08917 11.298933 0.86596813 795774.72 7.9577472e+12 0 2 4.0306665e-06 -1.8179943e-06 1.5968689e-06 0 0 0 0 0 0 3 -1 0.100008 3.3396374e-06 8.1661572e-07 3.3204915e-06 0 0 0 0 0 0 43 -1 0.100008
TSP BP 0.0046481128 0.00016020579 0.0030403764 0.065449206 -0.029142331 -0.014851092 0.0005 -1.0357075 -2.0445531 0.081476778 0.86243137 -36.605942 6.8773138 795774.72 7.9577472e+12 0 0
TSP BP 0.0023153572 0.002739556 0.0020401304 0.055733833 -0.0041183951 -0.023576169 0.0005 -0.51703575 -0.57272879 -1.3622958 -24.618456 -12.289554 8.8520604 795774.72 7.9577472e+12 0 1 -2.8620096e-07 -5.4789085e-07 -1.5755776e-07 0 0 0 0 0 0 46 -1 0.100008
TSP BP 0.0046410324 0.002537814 0.00071966533 0.0069844067 0.0066341268 0.0053450643 0.0005 1.7138877 0.74862806 0.88137638 -24.470506 6.6103171 -5.4048864 795774.72 7.9577472e+12 0 4 3.533807e-06 -3.0988154e-06 1.0672937e-06 0 0 0 0 0 0 27 -1 0.100008 2.9304425e-07 1.8245513e-06 -9.713736e-06 0 0 0 0 0 0 45 -1 0.100008 -2.4025491e-06 2.9958201e-06 1.0719648e-06 0 0 0 0 0 0 35 -1 0.100008 3.3199157e-07 2.1918445e-07 3.6776814e-07 0 0 0 0 0 0 49 -1 0.100008
TSP BP 0.00092418206 0.0015990929 0.001587324 0.016549159 0.014075835 0.0025894154 0.0005 0.96188886 1.3589528 1.9750327 2.8768924 9.2296943 10.841809 795774.72 7.9577472e+12 0 2 6.1995611e-07 7.8762251e-07 2.1095153e-07 0 0 0 0 0 0 36 -1 0.100008 -2.7366371e-07 -3.9439157e-07 -7.4382606e-07 0 0 0 0 0 0 41 -1 0.100008
TSP BP 0.0030880223 0.002243023 0.001641054 0.051650039 -0.0021315279 -0.0076308584 0.0005 1.0377406 1.5297541 -0.0031540958 -22.509452 49.254407 52.634269 795774.72 7.9577472e+12 0 2 3.329923e-06 -1.7334402e-06 -7.7919694e-08 0 0 0 0 0 0 34 -1 0.100008 1.6767685e-06 5.8065785e-07 1.1556382e-06 0 0 0 0 0 0 37 -1 0.100008
TSP BP 0.0047565661 0.0023545511 0.0024504205 0.089437039 0.012663387 0.029088045 0.0005 2.5118095 5.2915684 3.2300725 35.013299 98.763202 42.390388 795774.72 7.9577472e+12 0 1 -1.0146093e-07 5.6596062e-08 -5.1374872e-08 0 0 0 0 0 0 36 -1 0.100008
TSP BP 0.0041681219 0.0018219722 0.0018179678 0.065093802 0.0048869069 0.01420518 0.0005 0.59007869 3.3287465 1.4438376 53.502206 57.001373 -60.319936 795774.72 7.9577472e+12 0 2 -1.2907014e-06 -7.5705959e-07 6.1870285e-08 0 0 0 0 0 0 40 -1 0.100008 8.77426e-08 -6.4548274e-06 -1.3499553e-06 0 0 0 0 0 0 39 -1 0.100008
TSP BP 0.0044783447 0.0011982494 0.0028278358 0.068925122 0.0014396375 0.0063221408 0.0005 -0.33671819 4.3656551 -0.19091443 -17.538294 27.591122 -18.870902 795774.72 7.9577472e+12 0 2 1.7963593e-06 3.2680763e-06 1.9096028e-06 0 0 0 0 0 0 41 -1 0.100008 -1.0738919e-07 -1.180509e-07 1.9804978e-07 0 0 0 0 0 0 39 -1 0.100008
TSP BP 0.0012712354 0.0025464882 0.0015262915 0.020044907 0.022425651 0.0083901569 0.0005 -0.79047566 1.7879042 0.70314226 -62.718473 39.22663 -104.78732 795774.72 7.9577472e+12 0 2 5.0906298e-07 5.5516725e-06 -1.6934982e-06 0 0 0 0 0 0 47 -1 0.100008 2.7557969e-06 2.1734822e-06 -2.1197118e-06 0 0 0 0 0 0 45 -1 0.100008
TSP BP 0.0042869986 0.00072366492 0.0019698894 0.019820311 0.0082668287 0.0072258867 0.0005 -0.038057569 3.3259523 0.12942256 6.8895311 62.688907 -24.197502 795774.72 7.9577472e+12 0 3 5.952825e-07 1.3915571e-07 2.2652931e-07 0 0 0 0 0 0 40 -1 0.100008 -1.2225306e-06 4.9177176e-07 6.2840503e-10 0 0 0 0 0 0 58 -1 0.100008 6.0794446e-08 -2.4319821e-07 1.3568689e-06 0 0 0 0 0 0 41 -1 0.100008
TSP BP 0.00250444 0.00064444509 0.0016502153 0.047245218 0.016696924 0.0021878032 0.0005 -2.5072857 1.522775 -3.2478451 -18.710566 45.116933 -11.864192 795774.72 7.9577472e+12 0 1 1.7247439e-08 -1.2514004e-07 -9.1407738e-08 0 0 0 0 0 0 38 -1 0.099744
TSP BP 0.0024467994 0.00021544172 0.00074839335 0.0071243606 0.00016308451 0.01163716 0.0005 -0.087481063 0.98350433 -1.4736115 7.7942338 15.571634 -1.6443828 795774.72 7.9577472e+12 0 3 3.2401415e-07 9.0148644e-07 2.4159191e-07 0 0 0 0 0 0 10 -1 0.100008 -4.0569236e-06 1.4517452e-06 8.6855332e-08 0 0 0 0 0 0 47 -1 0.100008 -2.9990369e-06 3.199872e-06 -3.1552832e-06 0 0 0 0 0 0 50 -1 0.100008
TSP BP 0.00041760349 0.00019553662 0.0015457861 0.037798813 0.019863731 -0.0079378207 0.0005 2.0252431 1.0457589 1.9497517 -16.356422 88.080976 7.1004024 795774.72 7.9577472e+12 0 1 -2.7014931e-07 -1.4291467e-06 9.8912347e-07 0 0 0 0 0 0 45 -1 0.100008
TSP BP 0.0036364951 0.001047372 0.0034198007 0.096366313 -0.019241166 0.0017026418 0.0005 1.0572635 1.4402856 -0.70456471 55.008585 85.959535 -49.968424 795774.72 7.9577472e+12 0 1 1.3491165e-06 1.7569304e-06 1.2725655e-06 0 0 0 0 0 0 39 -1 0.100008
TSP BP 0.0014520456 0.00071659293 0.0015532101 0.054899524 0.021439841 -0.0054953427 0.0005 -1.7422368 0.73034318 -1.6694608 -39.065681 115.50496 -14.121877 795774.72 7.9577472e+12 0 1 1.5042789e-06 -2.1500527e-07 -6.8150439e-07 0 0 0 0 0 0 33 -1 0.100008
TSP BP 0.0006498608 0.0017256031 0.0031196601 0.073634964 0.0027064437 -0.0017872614 0.0005 -0.2365077 -0.10109357 -0.17928521 -19.149644 52.508864 -29.007583 795774.72 7.9577472e+12 0 0
TSP BP 0.0025931152 0.0013335952 0.0033653302 0.10092555 0.022722237 0.00060414433 0.0005 -0.56191273 0.56690854 1.8561318 12.91875 39.866874 -65.894492 795774.72 7.9577472e+12 0 0
TSP BP 0.0038029758 0.0020676044 0.0035065775 0.077687446 -0.023927879 0.039633532 0.0005 -0.67879323 0.84119057 -1.0977795 31.331903 95.414798 12.915236 795774.72 7.9577472e+12 0 1 -3.9198036e-07 -5.5514338e-07 3.5120162e-07 0 0 0 0 0 0 39 -1 0.100008
TSP BP 0.00044179785 0.00045349739 0.0025084107 0.065242214 0.0004107664 -0.0047029179 0.0005 -0.62476633 0.43125263 0.31483111 39.571403 14.014605 30.308673 795774.72 7.9577472e+12 0 2 4.3790584e-07 2.872084e-07 8.1169734e-07 0 0 0 0 0 0 51 -1 0.100008 1.7792691e-06 7.9327539e-07 -2.5729888e-07 0 0 0 0 0 0 63 -1 0.100008
TSP BP 0.0032832861 0.0012667877 0.0015539418 0.066793282 -0.0048719705 0.0013490231 0.0005 -0.16153581 1.8938852 -1.1102051 19.740267 26.20531 -12.146863 795774.72 7.9577472e+12 0 2 -1.8980531e-06 -5.4219189e-07 3.9907845e-07 0 0 0 0 0 0 50 -1 0.100008 -1.0086172e-07 -1.3297691e-08 -7.706121e-08 0 0 0 0 0 0 55 -1 0.100008
TSP BP 0.0007572654 0.0023461809 0.0023516785 0.038923235 0.037039139 0.011189042 0.0005 -1.5581956 -0.19099319 -1.5666708 80.515322 -11.992107 72.805007 795774.72 7.9577472e+12 0 2 -1.8195508e-06 -9.4122045e-07 -1.3614556e-06 0 0 0 0 0 0 59 -1 0.100008 -1.5436858e-06 2.5244611e-06 1.8240351e-06 0 0 0 0 0 0 66 -1 0.100008
TSP BP 0.0034245294 0.00024327504 0.0016856925 0.02933007 -0.0022784159 0.00028876362 0.0005 -1.8859652 -2.2160377 1.9790894 -20.613431 -13.633332 -76.878536 795774.72 7.9577472e+12 0 2 -1.6189781e-06 7.9811578e-07 -2.8389466e-07 0 0 0 0 0 0 34 -1 0.100008 -7.3200511e-06 9.0264276e-07 -3.3290884e-06 0 0 0 0 0 0 48 -1 0.100008
TSP BP 0.0021694371 0.0010150823 0.0025169179 0.069574813 0.022722139 0.0027050929 0.0005 0.2958008 1.8887399 0.97601078 -49.369582 -97.910343 4.3035912 795774.72 7.9577472e+12 0 2 4.218643e-08 1.2167135e-06 -5.1728004e-06 0 0 0 0 0 0 48 -1 0.100008 2.1636609e-07 -1.7085151e-07 -8.0586378e-07 0 0 0 0 0 0 37 -1 0.100008
TSP BP 0.0043077765 0.0027883246 0.0016225045 0.034393822 0.0090610923 0.01903569 0.0005 -1.5226011 2.3296263 -0.93032708 -20.921467 107.37816 100.85631 795774.72 7.9577472e+12 0 4 7.9746528e-06 5.1823885e-06 1.5056459e-06 0 0 0 0 0 0 53 -1 0.100008 3.4259044e-07 2.2343748e-08 4.6278897e-06 0 0 0 0 0 0 72 -1 0.100008 -3.5358256e-06 1.6863969e-06 5.8111149e-06 0 0 0 0 0 0 57 -1 0.100008 2.1734123e-06 4.9774717e-07 -1.2101966e-06 0 0 0 0 0 0 60 -1 0.100008
TSP BP 0.0005864653 0.0027390419 0.0032529199 0.074185209 0.031769348 0.014582619 0.0005 0.18504195 -1.5678752 0.82173229 -77.718552 91.323142 -82.431605 795774.72 7.9577472e+12 0 1 1.3801872e-06 1.2345092e-06 -2.7656786e-07 0 0 0 0 0 0 71 -1 0.100008
TSP BP 0.0046784701 0.001180378 0.0038065081 0.073115296 0.01350184 0.0059947629 0.0005 1.7210175 1.8350934 1.1667402 -11.622224 2.6699866 -28.108647 795774.72 7.9577472e+12 0 1 -8.2762184e-07 2.6873676e-07 1.7414503e-07 0 0 0 0 0 0 58 -1 0.100008
TSP BP 0.003711578 5.3315881e-05 0.0033731095 0.070405306 -0.027127265 -0.0045174235 0.0005 0.15584886 2.2353795 -0.30749991 -97.258166 31.229602 6.2610064 795774.72 7.9577472e+12 0 3 -2.4562116e-08 6.3375406e-09 -6.709838e-08 0 0 0 0 0 0 51 -1 0.100008 2.5204112e-07 -4.5347085e-08 -5.0750119e-07 0 0 0 0 0 0 68 -1 0.100008 -7.0052724e-07 3.1358687e-08 -1.7941268e-06 0 0 0 0 0 0 64 -1 0.100008
TSP BP 0.0044041795 0.0019634644 0.004364829 0.11980793 0.020300381 0.0014561471 0.0005 -0.45076828 0.11003742 0.77717727 3.779753 91.29324 -2.4428209 795774.72 7.9577472e+12 0 1 3.3778949e-07 -2.7211303e-07 5.5722328e-07 0 0 0 0 0 0 76 -1 0.0996
TSP BP 0.0046412669 0.002930076 0.0040155818 0.09568509 0.018471297 0.010719306 0.0005 0.95756138 1.4532043 -0.4529284 -20.964901 78.946437 -37.854176 795774.72 7.9577472e+12 0 1 -6.5385718e-07 -1.1308189e-06 -2.8400622e-07 0 0 0 0 0 0 51 -1 0.09984
TSP BP 0.0047963438 0.0021365392 0.0034310375 0.094103084 -0.0060693961 0.0065984172 0.0005 -2.2330237 -0.34332437 -1.7712689 -2.351628 -0.40260869 31.65655 795774.72 7.9577472e+12 0 3 -1.008942e-09 4.9558685e-07 -6.5680974e-07 0 0 0 0 0 0 66 -1 0.100008 -2.0607244e-07 4.9471674e-08 -2.6647534e-06 0 0 0 0 0 0 68 -1 0.100008 5.6679818e-07 2.4826198e-08 1.1666663e-07 0 0 0 0 0 0 79 -1 0.100008
TSP BP 0.0017096625 0.0027244988 0.0032313239 0.10764476 0.050989422 -0.014204363 0.0005 0.17656381 3.6580886 2.232048 -24.830364 99.535841 -21.437457 795774.72 7.9577472e+12 0 1 -1.4464586e-06 -2.5174215e-06 -6.5239249e-07 0 0 0 0 0 0 46 -1 0.100008
TSP BP 0.0028309199 0.0023497695 0.0033251785 0.13981534 0.014018623 -0.015907506 0.0005 -1.3023128 2.3530492 -1.3344293 -8.2894966 94.738729 -31.731927 795774.72 7.9577472e+12 0 1 1.8087414e-06 5.812147e-07 -6.9394052e-07 0 0 0 0 0 0 37 -1 0.100008
TSP BP 0.0012295285 0.00097009637 0.0028353427 0.06189085 0.0042419791 -0.019506187 0.0005 1.48432 1.4980083 0.80189377 -1.5081779 34.502258 35.29587 795774.72 7.9577472e+12 0 3 1.0866393e-06 -1.3413247e-06 -4.9873429e-07 0 0 0 0 0 0 69 -1 0.100008 4.2482084e-07 -2.8936192e-06 8.4516199e-07 0 0 0 0 0 0 73 -1 0.100008 -2.2947474e-08 -2.5608319e-06 6.7580234e-06 0 0 0 0 0 0 66 -1 0.100008
TSP BP 0.00050509808 0.00072519761 0.0034782386 0.08670546 -0.0084797686 0.01517955 0.0005 -1.1327286 4.2488978 -2.0234271 -75.332761 4.9326622 23.539793 795774.72 7.9577472e+12 0 2 1.8760733e-07 -1.289094e-07 1.6229489e-07 0 0 0 0 0 0 83 -1 0.100008 -5.1659556e-07 -4.5422201e-07 -6.7103194e-07 0 0 0 0 0 0 76 -1 0.100008
TSP BP 0.00025041926 0.00067980935 0.00068868498 0.0062129342 0.0042649463 -0.0059174339 0.0005 0.97959808 1.6879492 1.4528203 -19.161911 -0.12817019 -30.693935 795774.72 7.9577472e+12 0 3 -2.6189977e-08 -1.0891271e-06 4.4116028e-07 0 0 0 0 0 0 12 -1 0.100008 3.3088699e-07 -1.322149e-06 -8.1157256e-07 0 0 0 0 0 0 63 -1 0.100008 4.6613716e-07 2.0775867e-08 -1.2325896e-06 0 0 0 0 0 0 44 -1 0.100008
TSP BP 0.00066283447 0.0028609172 0.004240401 0.12809103 0.033697483 0.028074912 0.0005 0.98320567 1.9434713 0.15454466 54.499051 6.8538701 -33.580156 795774.72 7.9577472e+12 0 1 -1.0245055e-07 -3.4291585e-07 5.0246071e-08 0 0 0 0 0 0 75 -1 0.100008
TSP BP 0.0025499411 0.00030198096 0.0031172174 0.13467281 0.020508811 -0.017214434 0.0005 0.77414278 -0.6563645 -0.81572655 45.372868 6.2629555 4.6421645 795774.72 7.9577472e+12 0 1 3.7132161e-07 7.5139979e-07 8.928048e-07 0 0 0 0 0 0 48 -1 0.100008
TSP BP 0.00068733746 0.00086721508 0.0044536894 0.11528256 0.036687616 -0.0013659143 0.0005 -2.4345442 1.1064326 0.69819855 89.490979 128.80364 -14.31951 795774.72 7.9577472e+12 0 0
TSP BP 0.0015114583 0.0023250461 0.0041281407 0.12373555 0.019968786 -0.033174986 0.0005 0.47266132 -1.1279298 0.26119323 52.473269 -73.178414 56.018477 795774.72 7.9577472e+12 0 0
TSP BP 0.0040594149 0.00065138455 0.0044027328 0.10120563 -0.0054499669 0.0039605276 0.0005 0.1593252 -2.311329 1.3580705 23.821736 5.8147241 89.39805 795774.72 7.9577472e+12 0 1 -5.2522791e-07 -1.4073548e-07 -5.3905693e-07 0 0 0 0 0 0 79 -1 0.099136
TSP BP 0.0037004437 0.0026911328 0.0043037483 0.11009697 0.0067473431 0.010980268 0.0005 -0.67145414 0.57665929 -1.2615948 -38.760126 -5.0803956 9.9997911 795774.72 7.9577472e+12 0 1 -1.4712873e-07 2.2953714e-07 8.7570275e-08 0 0 0 0 0 0 77 -1 0.100008
TSP BP 0.0033758763 0.0016933713 0.0043299546 0.11029903 -0.02917523 0.056311236 0.0005 -1.3494566 -0.071012731 -1.4704335 -29.699316 -43.285599 4.5109257 795774.72 7.9577472e+12 0 1 -3.7728529e-07 -6.1166121e-08 -2.2533114e-07 0 0 0 0 0 0 68 -1 0.099912
TSP BP 0.0016047668 0.001230298 0.0037508814 0.10053425 0.013368826 0.016657934 0.0005 -0.079646637 -0.57174463 2.6191177 45.052069 11.434191 4.7892216 795774.72 7.9577472e+12 0 1 -5.334953e-07 -4.9224389e-08 2.2235478e-07 0 0 0 0 0 0 83 -1 0.099216
TSP BP 0.0031146907 0.00047980423 0.0040542537 0.083519565 0.0055085339 0.0021186098 0.0005 -0.94010472 -0.19634943 1.1781721 10.728016 70.721064 17.427384 795774.72 7.9577472e+12 0 1 1.1886971e-06 -7.0188458e-07 3.4975055e-07 0 0 0 0 0 0 64 -1 0.100008
TSP BP 0.0035347777 0.0026348792 0.0024729031 0.095182334 -0.015721991 -0.015611999 0.0005 1.557657 6.1944412 1.7593169 36.568118 160.79585 78.012433 795774.72 7.9577472e+12 0 1 1.4202955e-07 -1.5924501e-08 -2.9710758e-08 0 0 0 0 0 0 72 -1 0.099816
TSP BP 0.00055866134 0.0018041536 0.0041078348 0.10508529 0.0090878043 0.038824145 0.0005 -0.74266373 2.7957611 -1.5599609 51.665971 23.99108 21.94297 795774.72 7.9577472e+12 0 1 2.6346285e-06 -8.0131691e-07 3.0684908e-07 0 0 0 0 0 0 66 -1 0.100008
TSP BP 0.0040956696 0.0001740357 0.0053231387 0.16461338 -0.027801348 0.0022142244 0.0005 0.19226656 2.1070297 -0.5689494 -24.647456 88.926986 -29.254178 795774.72 7.9577472e+12 0 1 9.6197364e-08 8.8260728e-08 6.1142162e-08 0 0 0 0 0 0 90 -1 0.096424
TSP BP 0.0024780958 0.00024678091 0.0047899407 0.10045589 0.011137312 0.012723134 0.0005 -0.63121291 1.3189651 -0.48553618 -29.863315 -37.461043 2.4342447 795774.72 7.9577472e+12 0 1 1.6690423e-07 -1.3206855e-07 1.0681409e-07 0 0 0 0 0 0 94 -1 0.09904
TSP BP 0.0014378136 0.00019831808 0.00069466511 0.010372984 0.0069637332 0.0020850137 0.0005 -0.55980305 1.2312227 -0.38148071 3.3822125 8.4333978 -5.5014821 795774.72 7.9577472e+12 0 2 -5.9189315e-08 -7.4318802e-08 -2.0068598e-08 0 0 0 0 0 0 23 -1 0.100008 1.2584264e-06 -1.56433e-06 1.4501652e-06 0 0 0 0 0 0 45 -1 0.100008
TSP BP 0.0011118334 0.0013438112 0.0053510613 0.14428893 -0.041632499 -0.010332266 0.0005 -2.4851095 3.3164075 0.71075548 1.3076915 -59.930243 154.39033 795774.72 7.9577472e+12 0 0
TSP BP 0.0015214969 0.00030446987 0.0044944937 0.1405801 0.00030234067 -0.055978748 0.0005 0.92446468 2.0491108 1.2429146 -56.865479 8.7730089 -12.770685 795774.72 7.9577472e+12 0 1 -7.9081053e-07 9.3364902e-08 2.5094265e-06 0 0 0 0 0 0 86 -1 0.100008
TSP BP 0.00060695144 0.0023066205 0.0050721104 0.15362338 -0.026040118 -0.012049817 0.0005 1.0725493 6.9252261 -3.9125004 70.452596 29.367354 59.493047 795774.72 7.9577472e+12 0 1 -2.9276903e-07 -2.5365293e-07 -1.8521746e-07 0 0 0 0 0 0 86 -1 0.099784
TSP BP 0.0024922634 0.0011797716 0.0044056023 0.076922671 0.012428957 -0.0019820561 0.0005 -2.3234502 -0.84791054 0.4393302 -78.786717 -32.194466 5.0303347 795774.72 7.9577472e+12 0 1 3.0795493e-08 1.6836443e-07 -2.8058006e-07 0 0 0 0 0 0 94 -1 0.099944
TSP BP 0.0025695632 0.0022836213 0.0042974475 0.1262138 -0.010563255 -0.036457146 0.0005 2.6830602 -1.44799 0.41704105 29.447982 -8.7422113 -41.94953 795774.72 7.9577472e+12 0 1 -2.9100861e-07 -1.6623189e-07 4.1998798e-06 0 0 0 0 0 0 92 -1 0.100008
TSP BP 0.0028341415 0.0011160946 0.0053442074 0.1915085 -0.0069914425 -0.038197233 0.0005 -2.2507945 3.7826624 5.5849622 47.44819 174.22219 86.844599 795774.72 7.9577472e+12 0 1 -2.7126333e-06 2.992315e-06 1.079667e-06 0 0 0 0 0 0 103 -1 0.099752
TSP BP 0.0018996436 0.0018143709 0.004901548 0.098870263 0.036996007 -8.6136159e-05 0.0005 -2.4184411 2.8339655 0.26816788 20.030161 96.286193 -29.725978 795774.72 7.9577472e+12 0 1 -1.9701224e-08 -2.6241692e-08 1.0036628e-08 0 0 0 0 0 0 103 -1 0.100008
NUM_BUCKETS 256 HGRID_MAX_LEVELS 3 MIN_CELL_SIZE 0.001 SPHERE_TO_CELL_RATIO 1 CELL_TO_CELL_RATIO 2
FixedParticleRadius 0.0005 MinInflowParticleRadius 0.0005 MaxInflowParticleRadius 0.0005
RandomizedBottom 2 ChuteAngle 25 max_failed 1 num_created 75
InflowVelocity 0.1 InflowVelocityVariance 0 InflowHeight 0.005
