restart_version 3
name hopper_3d_demo
xmin 0 xmax 58.709401 ymin 0 ymax 100 zmin 0 zmax 33.085125
dt 0.0004 t 2.0004 tmax 2 save_count_data 51 save_count_ene 51 save_count_stat 1000000 save_count_fstat 1000000
dim 3 gravity 4.9 0 -8.487049
options_fstat 1 options_data 1 options_ene 1 options_restart 1
Species 1
k 3.9782566e+08 disp 160480.6 kt 0 dispt 160480.6 mu 0.8 rho 2400 dim_particle 3
Walls 5
InfiniteWall normal 0 0 -1 position -0
FiniteWall numFiniteWalls 3 normal -0.25881905 0 -0.96592583 position -26.162222 normal -0.8660254 0 -0.5 position -17.542563 normal 0.63106124 0 0.77573301 position 21.010826
FiniteWall numFiniteWalls 3 normal 0.96592583 0 -0.25881905 position 1.4751351 normal 0.8660254 0 0.5 position 21.542563 normal -0.99530197 0 -0.096819377 position -13.546763
FiniteWall numFiniteWalls 3 normal 0.35355339 -0.70710678 -0.61237244 position -47.698882 normal 0 -1 -0 position -48 normal -0.17813694 0.93438158 0.30854222 position 49.469694
FiniteWall numFiniteWalls 3 normal 0.35355339 0.70710678 -0.61237244 position 23.011796 normal 0 1 0 position 52 normal -0.17813694 -0.93438158 0.30854222 position -43.968463
Boundaries 1
PeriodicBoundary normal 0 1 0 position_left 0 position_right 100 shift 0 100 0
Particles 296
TSP BP 10.210409 48.900294 24.167918 3.124465 -1.0631959 -6.8914852 0.5 -3.0608935 -4.5594253 0.2723142 -3.1351706 -9.5832585 0.14748258 0.00079577472 0.0079577472 0 0
TSP BP 8.4793754 48.613908 27.203433 0.717817 1.1122574 -3.3329738 0.5 -2.2526656 -2.3159323 -1.9724332 -2.6081005 -2.408098 -2.1933175 0.00079577472 0.0079577472 0 0
TSP BP 13.723326 51.088061 12.511399 8.7918557 -0.34128079 -15.063556 0.5 3.2046656 7.400747 1.3696784 2.7057441 5.4545152 1.1910465 0.00079577472 0.0079577472 0 0
TSP BP 17.806705 49.668423 12.735096 10.474745 0.17058031 -15.963897 0.5 -2.3041597 0.66271876 1.333921 -1.4814078 0.43460632 0.91942017 0.00079577472 0.0079577472 0 0
TSP BP 4.0758215 51.937455 26.510521 0.24090527 -0.1251691 -0.064197141 0.5 0.15891917 -0.13043079 -1.1964667 0.25124911 0.4028036 0.31948337 0.00079577472 0.0079577472 0 0
TSP BP 6.6507236 50.260391 26.05285 3.624742 -1.0747532 -4.4499491 0.5 -0.75738412 1.8873304 -1.0627527 -3.3691874 1.0440966 -1.250864 0.00079577472 0.0079577472 0 0
TSP BP 12.078424 50.26897 21.028086 6.187746 -0.078586185 -10.868388 0.5 -2.6381098 -8.7224044 -0.33131464 -1.5261582 -5.9611313 -1.1692024 0.00079577472 0.0079577472 0 0
TSP BP 8.4964063 50.730297 25.549944 3.0528641 1.030587 -6.5909956 0.5 0.64673342 -1.0316829 1.0259271 1.6036398 -0.76033144 0.074640773 0.00079577472 0.0079577472 0 0
TSP BP 6.1354914 48.171872 26.626504 0.24798638 1.2046861 -1.2409421 0.5 -1.8247498 1.7221471 0.11150742 -4.1582778 1.6317749 0.76917036 0.00079577472 0.0079577472 0 0
TSP BP 16.393448 49.607699 11.06429 10.407572 -0.1527013 -16.422138 0.5 1.4427458 3.0368818 -0.62069179 0.87011471 1.8521973 -0.40917435 0.00079577472 0.0079577472 0 0
TSP BP 7.9448954 52.480809 29.56017 -0.043049016 -0.11465487 -0.10426252 0.5 -0.83461771 1.3045085 -1.1324492 0.154454 -0.16846222 -0.25429698 0.00079577472 0.0079577472 0 0
TSP BP 7.6470446 51.101814 23.900435 3.8390195 -0.39356129 -6.7424955 0.5 4.5864903 2.9862947 0.21267577 2.7455849 2.2722452 0.53875932 0.00079577472 0.0079577472 0 0
TSP BP 10.866428 51.39203 19.52817 5.9092698 -0.32822915 -11.630465 0.5 6.1680058 -2.9740762 1.6131346 6.9283059 -1.970444 2.6979464 0.00079577472 0.0079577472 0 0
TSP BP 9.12611 46.866027 30.291148 -0.12560443 0.34379747 -0.31870105 0.5 0.17195251 -1.4654206 0.088625559 -1.5462992 -0.659487 -0.13702179 0.00079577472 0.0079577472 0 0
TSP BP 3.7673459 48.956227 26.593171 0.48333091 -0.15872975 -0.10766462 0.5 0.65936708 -0.90719389 0.56232512 0.18140852 1.0656104 -0.40598467 0.00079577472 0.0079577472 0 0
TSP BP 7.054552 50.277693 24.276597 3.695659 -0.34513981 -5.9537143 0.5 -1.5755387 4.7022164 -1.2436968 -2.0418714 2.644858 -1.709154 0.00079577472 0.0079577472 0 0
TSP BP 6.7032692 49.68459 25.200854 2.6107125 0.19055197 -3.935469 0.5 0.12340107 2.8873206 -0.020817419 0.96862467 1.5322076 -0.13679583 0.00079577472 0.0079577472 0 0
TSP BP 7.0943582 51.281372 26.177755 3.5855841 -0.028490822 -4.6641287 0.5 0.60070757 -1.5566681 -0.1036603 1.537074 -2.9908932 1.8602348 0.00079577472 0.0079577472 0 0
TSP BP 2.9049746 49.587826 26.824326 0.78864499 -0.34384706 -0.2012363 0.5 -0.10463035 1.493773 -0.45821797 0.32431486 1.6497118 -0.27098007 0.00079577472 0.0079577472 0 0
TSP BP 6.7191653 50.674226 27.12164 0.37207907 0.65158186 -3.4499698 0.5 0.56961997 -2.0154651 0.59463126 2.4149374 -1.0484397 -0.42769511 0.00079577472 0.0079577472 0 0
TSP BP 9.8175317 50.844903 19.39875 4.6819434 -0.1172515 -10.222554 0.5 -0.55225175 2.783445 -1.0302569 6.7681383 1.3487986 4.624338 0.00079577472 0.0079577472 0 0
TSP BP 10.867531 50.118369 18.169937 6.9083642 -0.43597512 -12.515092 0.5 3.1697335 1.1395115 7.3731436 0.81112844 -1.4620849 4.1004557 0.00079577472 0.0079577472 0 0
TSP BP 10.443958 51.49068 23.710441 4.3601278 -0.13262917 -7.3661806 0.5 4.9142981 -3.5135474 2.7345604 4.9385279 -3.1219152 4.0811011 0.00079577472 0.0079577472 0 0
TSP BP 9.0168309 49.41513 22.370757 5.305675 -0.21846786 -9.2666239 0.5 0.39154657 3.4219992 -3.3901431 0.12172887 3.2168245 -2.4928854 0.00079577472 0.0079577472 0 0
TSP BP 9.238396 52.697269 30.709433 -0.061330288 -0.12791806 -0.20370674 0.5 -1.008774 -1.7157306 0.92955886 -0.19735287 -0.34769723 0.16141693 0.00079577472 0.0079577472 0 0
TSP BP 8.5036863 51.634124 28.948723 -0.063507324 0.015836054 -0.91265709 0.5 -1.0066952 0.83405056 -0.11846397 1.6256163 0.56345988 -0.30866209 0.00079577472 0.0079577472 0 0
TSP BP 5.3009741 49.746962 27.030965 1.5449751 -0.52866013 -0.14648665 0.5 1.3200794 -0.78202705 2.6800671 1.7610615 1.4517246 -1.1625933 0.00079577472 0.0079577472 0 0
TSP BP 9.2272823 51.209191 21.281993 5.9428424 0.50836466 -9.7720485 0.5 2.3754903 1.1416661 4.3597011 1.6153799 1.5617878 3.7454655 0.00079577472 0.0079577472 0 0
TSP BP 15.22275 49.994072 15.174778 9.2876622 0.22106798 -14.808879 0.5 -5.8743916 -5.3620179 -0.85805013 -4.0805791 -3.4921332 -0.50569268 0.00079577472 0.0079577472 0 0
TSP BP 6.7856961 51.374582 27.857627 -0.32971476 -0.63938885 -1.1424895 0.5 1.0257783 -0.25625946 0.67691071 1.7428535 1.0946518 -1.0151781 0.00079577472 0.0079577472 0 0
TSP BP 6.0592705 53.120459 28.074935 0.50724292 -0.70151563 -0.49751582 0.5 2.5658714 0.29895797 1.5019358 1.4452156 0.13546014 1.2729647 0.00079577472 0.0079577472 0 0
TSP BP 5.1382614 53.123977 27.547219 0.36667662 -0.22670852 -0.049383336 0.5 1.7723762 1.9897508 0.58150635 0.55504416 0.92417079 0.24250902 0.00079577472 0.0079577472 0 0
TSP BP 9.6618294 48.902897 20.731976 4.9283669 -0.0083036813 -11.183569 0.5 1.4196934 2.4095694 -1.4471237 0.62597544 2.1727161 -0.92476333 0.00079577472 0.0079577472 0 0
TSP BP 10.611156 50.289828 23.211271 5.2975002 -0.59152275 -9.62087 0.5 3.3307579 0.70621153 -2.4920662 0.35481384 0.56386771 -1.5015762 0.00079577472 0.0079577472 0 0
TSP BP 7.8739107 52.39916 28.322679 -0.2106445 -0.79480253 -0.83218713 0.5 1.1960131 -1.5472285 0.25800782 0.29509152 1.0907034 -1.8861105 0.00079577472 0.0079577472 0 0
TSP BP 9.0001269 49.558422 26.196097 2.2376497 0.48021345 -5.1974538 0.5 -0.24971701 -3.0798646 -0.58078426 -0.091723029 -6.5305386 -1.14624 0.00079577472 0.0079577472 0 0
TSP BP 11.912487 48.53165 19.907305 6.4490363 -0.0092530028 -11.314471 0.5 -6.4532238 0.55636333 0.12947822 -4.2243594 0.33881758 -0.36038685 0.00079577472 0.0079577472 0 0
TSP BP 6.2679203 47.500273 27.478635 0.62419253 1.1400072 -0.96394883 0.5 -1.3066273 -0.74041824 -1.0064096 -2.8654486 0.38220677 -1.3980583 0.00079577472 0.0079577472 0 0
TSP BP 10.856146 50.859774 17.452092 6.9342272 0.3474706 -11.394273 0.5 6.5467015 3.9800849 -1.3581672 1.252901 8.5920788 -2.3039797 0.00079577472 0.0079577472 0 0
TSP BP 8.8530131 49.707958 29.27036 -0.27983128 -0.070374775 -0.75617392 0.5 1.1542144 -1.6382218 0.061183723 -0.97790444 -0.9509807 0.50359466 0.00079577472 0.0079577472 0 0
TSP BP 3.1789008 51.566598 26.751084 0.21974877 -0.1914817 -0.080833325 0.5 1.4858285 1.5352691 0.51146994 0.69784711 0.030247654 -0.49506874 0.00079577472 0.0079577472 0 0
TSP BP 17.681553 50.918048 10.889275 10.078607 0.45289101 -17.040079 0.5 -0.58102362 0.38979478 0.23641624 -0.40380196 0.27090125 0.16430614 0.00079577472 0.0079577472 0 0
TSP BP 8.756729 47.895078 28.911983 -0.034514223 0.24498195 -0.21839909 0.5 -0.092815049 -1.7768755 -0.083651674 -0.42869013 -0.40390302 -0.1442076 0.00079577472 0.0079577472 0 0
TSP BP 2.7113808 53.111335 26.876333 0.10662143 -0.069016873 -0.030018849 0.5 0.253482 0.63360757 -0.82001559 -0.020256728 -0.021690873 0.0086811647 0.00079577472 0.0079577472 0 0
TSP BP 8.6406362 48.800103 28.47939 -0.18729922 -0.10660785 -0.63753352 0.5 2.1539508 -2.164049 -0.52885458 4.5939652 -1.3019383 -1.0086856 0.00079577472 0.0079577472 0 0
TSP BP 9.247607 51.679282 30.744958 -0.00061459252 -0.091294373 -0.039365211 0.5 0.33109005 -0.69327244 -0.53828998 0.36854625 -0.016934065 0.032878496 0.00079577472 0.0079577472 0 0
TSP BP 7.8536747 46.378671 29.689935 0.11893123 0.27379332 -0.45791955 0.5 -1.7291329 -0.84785248 -0.15130441 -0.33848247 -0.28350558 0.26371162 0.00079577472 0.0079577472 0 0
TSP BP 15.936514 50.792276 13.720667 9.1506151 -0.34325192 -15.408923 0.5 1.0277554 -0.57885321 -1.831568 0.3984629 -0.3990179 -1.4570791 0.00079577472 0.0079577472 0 0
TSP BP 9.0141913 47.813938 29.87476 0.010881343 0.16958453 -0.22341843 0.5 0.088312396 0.99843672 0.062771786 0.37290704 0.37401171 -0.57650632 0.00079577472 0.0079577472 0 0
TSP BP 5.72727 51.549417 26.048044 1.8328859 -1.1153237 -1.0188294 0.5 2.4066226 2.6292718 1.6495132 2.8926483 3.0786284 2.2614133 0.00079577472 0.0079577472 0 0
TSP BP 8.0120349 48.310098 29.434596 -0.26445671 0.22220418 -0.51230124 0.5 -1.0406062 0.89393405 0.29106125 -0.31823922 0.20341003 0.00076707507 0.00079577472 0.0079577472 0 0
TSP BP 12.236027 49.376436 14.390631 7.7310584 0.63958093 -14.528726 0.5 -7.0201914 3.7855758 -0.7600962 -4.4365001 2.8826025 -0.2733804 0.00079577472 0.0079577472 0 0
TSP BP 4.6485532 46.341262 27.881855 0.40326444 0.2938734 -0.11310064 0.5 -2.1810774 1.4720171 -1.3990454 -0.78611629 1.0347261 -0.18286455 0.00079577472 0.0079577472 0 0
TSP BP 4.6393249 52.145611 27.600881 0.29289394 -0.28078225 -0.14004021 0.5 0.79473936 0.60892361 -0.54209293 0.2158537 0.4581071 0.34500338 0.00079577472 0.0079577472 0 0
TSP BP 7.5215504 48.571218 27.923397 0.044792343 0.88234298 -1.1616829 0.5 0.18089275 0.87396543 2.0647553 2.24665 1.8538994 1.0458714 0.00079577472 0.0079577472 0 0
TSP BP 9.3114561 46.084245 30.982668 -0.053497496 0.0010722338 -0.16263911 0.5 0.7474021 -1.9381428 -1.1224108 0.079928245 -0.30161785 -0.082213144 0.00079577472 0.0079577472 0 0
TSP BP 4.4421552 46.96846 27.069594 0.47491617 0.045290838 -0.24466781 0.5 0.22059531 -0.020173441 -0.083139021 0.6888857 -0.54353606 0.87480793 0.00079577472 0.0079577472 0 0
TSP BP 5.2293207 48.460952 26.201357 0.86128719 0.29762706 -0.20876716 0.5 -0.39222876 1.6831351 0.52564417 -0.43519779 1.6579626 0.27810021 0.00079577472 0.0079577472 0 0
TSP BP 8.3052079 48.694853 25.668933 2.0681468 0.57602541 -5.6088923 0.5 -3.277501 -2.7412696 -1.379147 -4.7094819 -3.0738467 -1.125444 0.00079577472 0.0079577472 0 0
TSP BP 4.6140976 52.731783 26.791293 0.10917938 -0.046698448 0.033815625 0.5 -0.58564333 -0.28862488 0.91141898 0.16638692 -0.14185244 0.15438389 0.00079577472 0.0079577472 0 0
TSP BP 7.9733906 51.484851 25.129052 3.1363551 2.0527148 -6.3081154 0.5 0.96096926 -2.2678641 3.1329996 1.9740073 -2.2202924 0.6393547 0.00079577472 0.0079577472 0 0
TSP BP 8.9785348 50.095267 23.782302 6.060363 -0.77579333 -7.7087286 0.5 4.6542416 1.6731229 2.0864415 5.1308912 2.9093186 0.82397098 0.00079577472 0.0079577472 0 0
TSP BP 8.7897789 52.58822 29.036245 -0.030853633 -0.075999449 -0.094966075 0.5 1.331249 -1.8494632 0.98816397 0.15434047 -0.0052536281 0.17923934 0.00079577472 0.0079577472 0 0
TSP BP 3.9449948 50.946832 26.545612 0.4857889 -0.14708211 -0.15412747 0.5 -0.035879859 -0.42425217 -0.58831918 0.20830757 0.97919347 0.10557211 0.00079577472 0.0079577472 0 0
TSP BP 8.6423134 47.001635 29.425141 -0.055329606 0.24152382 -0.28133623 0.5 -1.9647116 -0.20094461 0.070144439 -0.58660227 -0.44348884 -0.20281076 0.00079577472 0.0079577472 0 0
TSP BP 4.3490878 47.737565 26.437355 0.61235955 0.14220963 -0.15641578 0.5 -0.37127847 1.0652982 0.56325116 -0.62579325 1.2161474 -1.7273954 0.00079577472 0.0079577472 0 0
TSP BP 6.9999084 52.884473 28.345469 0.052726448 -0.36378846 -0.39263646 0.5 1.4294241 0.10974542 0.45970291 0.75568961 -0.67151984 0.80216137 0.00079577472 0.0079577472 0 0
TSP BP 8.7154477 51.162626 26.72476 1.8240374 0.47544126 -4.6650831 0.5 0.48013884 -3.9202172 1.20582 1.9575369 -4.6007647 -0.46838091 0.00079577472 0.0079577472 0 0
TSP BP 7.057707 48.210823 27.11411 0.30248944 1.5492343 -1.6096143 0.5 -3.016348 -0.56413023 -1.3228426 -2.5082317 -3.988514 -4.3394508 0.00079577472 0.0079577472 0 0
TSP BP 7.7974175 53.466421 29.477785 0.057636548 -0.10929333 -0.094109334 0.5 1.3402682 -0.63716276 1.2729145 0.079598937 -0.053687552 0.26050398 0.00079577472 0.0079577472 0 0
TSP BP 8.8951721 53.208319 29.813768 0.053090263 -0.063785028 -0.11687626 0.5 0.46969447 0.89542921 -0.72686969 0.063973585 0.12905629 -0.059731722 0.00079577472 0.0079577472 0 0
TSP BP 12.478861 50.124218 17.449041 7.237771 0.35661594 -13.578869 0.5 -1.7865313 1.4652469 -4.7224609 -1.6363539 0.53041675 -2.1597442 0.00079577472 0.0079577472 0 0
TSP BP 14.317837 51.260828 14.028592 9.2805478 0.86286957 -15.21092 0.5 -0.32399724 -1.3068817 0.20304399 0.039075616 -0.96473803 0.38704721 0.00079577472 0.0079577472 0 0
TSP BP 3.8288827 49.954163 26.576611 0.61980106 -0.16779662 -0.13703251 0.5 0.53145742 1.3753274 1.5867828 0.10126352 1.139523 0.01931075 0.00079577472 0.0079577472 0 0
TSP BP 8.9140191 48.736691 29.500179 -0.088371004 0.00019520411 -0.37826001 0.5 -0.5293598 -2.9444509 -0.30193886 0.37216421 -0.48288098 -0.32399093 0.00079577472 0.0079577472 0 0
TSP BP 7.6611023 51.354717 28.345816 -0.32038166 -0.96787728 -1.1092887 0.5 -0.9665898 0.84579617 -1.2870857 -3.0602833 -0.38765802 0.1878653 0.00079577472 0.0079577472 0 0
TSP BP 5.7509925 48.354888 27.531186 0.44498545 1.0598908 -1.1244256 0.5 1.3603717 -0.80928177 0.81168045 3.368353 -0.74126381 1.4848359 0.00079577472 0.0079577472 0 0
TSP BP 2.774761 46.252712 26.902391 0.2403372 0.1401682 -0.040965008 0.5 -0.89993724 1.8671426 0.83763441 -0.22777764 0.31327567 -0.36734152 0.00079577472 0.0079577472 0 0
TSP BP 7.956172 47.436015 28.527368 0.0090699541 0.34536456 -0.40255408 0.5 -0.95684834 -0.093025029 -1.5124122 -0.67913117 -0.64788579 -0.78503046 0.00079577472 0.0079577472 0 0
TSP BP 4.7276507 49.315503 26.335253 0.40842759 -0.057213576 0.43705223 0.5 -0.7241002 3.2046219 -0.32424546 -0.017000152 1.2176148 1.0946888 0.00079577472 0.0079577472 0 0
TSP BP 7.8861078 49.952194 29.119616 -0.14276844 0.1797246 -1.0107506 0.5 -0.64782214 -0.67622908 -0.22590081 0.43842042 1.0671316 1.1504057 0.00079577472 0.0079577472 0 0
TSP BP 11.611851 50.720292 18.910584 7.1690088 0.83215879 -12.254667 0.5 -3.3085169 3.5143905 -2.4671893 -2.1327203 1.5952243 -2.2385391 0.00079577472 0.0079577472 0 0
TSP BP 10.88617 49.995163 21.268661 6.3446931 0.4242802 -10.993299 0.5 -1.8161422 0.13791407 -1.5220987 -0.21546329 -0.024550146 -0.56374872 0.00079577472 0.0079577472 0 0
TSP BP 9.2099605 53.734714 30.604184 -0.024739791 -0.060930628 -0.050811652 0.5 1.1201681 -1.4645268 0.78813715 0.10689974 -0.06579131 0.089195007 0.00079577472 0.0079577472 0 0
TSP BP 9.7648191 50.896214 23.213633 5.710069 0.2567603 -8.889035 0.5 1.6362306 3.463483 1.5183786 2.4242993 1.5476361 0.99695302 0.00079577472 0.0079577472 0 0
TSP BP 5.599607 46.439208 28.317922 -0.040812578 0.12655429 -0.081639845 0.5 -1.9469909 0.11678974 -2.1175597 0.13691705 -0.62831046 -0.51958 0.00079577472 0.0079577472 0 0
TSP BP 2.3701232 54.041933 27.008947 0.083306979 -0.067462857 -0.034264901 0.5 1.1460937 1.4773723 1.3250006 0.064065568 -0.0013877938 0.14769812 0.00079577472 0.0079577472 0 0
TSP BP 3.5396926 46.854475 26.65423 0.40013373 0.10927769 -0.11358768 0.5 -1.2715062 1.1217079 -0.74654415 -0.43175797 0.84020675 -0.88336615 0.00079577472 0.0079577472 0 0
TSP BP 5.2959806 47.635398 26.761347 0.74940253 0.34415893 -0.023956038 0.5 -0.74773588 -0.076661627 -2.0100504 -0.13946484 0.20674647 -1.6980596 0.00079577472 0.0079577472 0 0
TSP BP 10.397916 49.982921 19.560117 6.1189641 -0.66977157 -11.098111 0.5 -5.4493206 -5.1636867 -8.0781118 -3.6095503 -2.15894 -2.3124053 0.00079577472 0.0079577472 0 0
TSP BP 3.6468114 53.701581 27.353097 0.083416791 -0.074984388 -0.0049026319 0.5 -0.89799796 -0.53750785 -0.63643998 0.036191143 0.013974886 0.16735061 0.00079577472 0.0079577472 0 0
TSP BP 6.1663768 49.15658 26.268817 2.4621091 1.3292238 -3.8528934 0.5 0.14887761 -1.2803499 -0.70325182 0.42490678 -0.69050583 -2.680257 0.00079577472 0.0079577472 0 0
TSP BP 16.826532 50.779587 12.283391 10.325464 0.47028091 -16.141553 0.5 -4.5924173 0.98704991 3.9201406 -3.0443273 0.6537974 2.5421478 0.00079577472 0.0079577472 0 0
TSP BP 12.571131 50.12126 19.680779 6.5391878 0.77200712 -11.81558 0.5 4.4548264 -5.0284651 -3.4722333 3.3058528 -3.001359 -2.3102721 0.00079577472 0.0079577472 0 0
TSP BP 7.2717524 46.789079 28.879155 -0.098908504 0.26555469 -0.25139582 0.5 -0.39607335 -1.2306688 -1.8853543 -0.39534951 -0.64957773 -0.20573511 0.00079577472 0.0079577472 0 0
TSP BP 10.874085 50.958013 20.843139 6.1394262 0.37496035 -11.200277 0.5 3.1229258 0.79291448 1.2282357 2.2791287 1.9904886 0.81549778 0.00079577472 0.0079577472 0 0
TSP BP 9.1468645 50.753044 30.368862 -0.085060821 -0.10209191 -0.34983368 0.5 0.32547163 -2.0239251 0.5852165 0.16358269 -0.69863647 0.14736795 0.00079577472 0.0079577472 0 0
TSP BP 12.417752 51.521691 17.898315 7.0534027 1.079837 -13.096226 0.5 4.2529906 -0.37128343 0.51532285 2.431084 -0.29616405 2.4545999 0.00079577472 0.0079577472 0 0
TSP BP 7.5849754 51.834782 27.471185 -0.16581356 -0.76773872 -0.9768486 0.5 2.3360213 1.0132124 -0.97393894 3.5106895 1.5194624 -1.8363301 0.00079577472 0.0079577472 0 0
TSP BP 6.5851606 48.246971 28.071948 0.12999842 0.40809715 -0.77453598 0.5 2.1981429 -0.020706988 0.1135337 0.45790493 -0.65580186 -0.57512828 0.00079577472 0.0079577472 0 0
TSP BP 5.5976123 50.28587 26.102762 2.6829692 -0.51303251 -0.56543929 0.5 1.9308705 3.2691667 0.22182142 1.3168776 5.3552435 0.93744873 0.00079577472 0.0079577472 0 0
TSP BP 7.7181318 49.021279 28.795563 -0.18419033 0.10367415 -0.77251848 0.5 0.58139816 0.37026613 -0.65675718 -0.72470818 0.099929833 -0.83764791 0.00079577472 0.0079577472 0 0
TSP BP 3.6735264 53.023885 26.618318 0.10256119 -0.088218437 -0.010999703 0.5 1.3677656 0.86329232 -0.025593087 0.046638226 0.051009241 -0.053845874 0.00079577472 0.0079577472 0 0
TSP BP 6.6880651 52.304439 27.49558 0.27076164 -0.45446314 -0.37460278 0.5 2.1328681 -0.21652043 1.7256934 1.2446769 0.60595341 0.2184273 0.00079577472 0.0079577472 0 0
TSP BP 7.0600117 47.367158 28.089236 -0.0038730215 0.33670833 -0.35825325 0.5 -2.6729755 0.77704605 -1.2363758 -1.1172635 0.43732284 0.25531259 0.00079577472 0.0079577472 0 0
TSP BP 5.3311445 46.989928 27.526896 0.43437866 0.31961153 -0.16156912 0.5 -1.3469064 1.001984 -0.89783888 -0.64520247 0.44161402 -0.38837814 0.00079577472 0.0079577472 0 0
TSP BP 7.5236477 50.224063 25.41359 3.9932267 0.04499474 -5.2844406 0.5 -1.4104651 2.0465263 -1.5578099 -1.2810216 2.0787741 -1.3149667 0.00079577472 0.0079577472 0 0
TSP BP 13.960653 49.10439 14.783734 8.1667939 0.44709677 -14.644389 0.5 -3.5090565 -2.7298951 1.1824792 -2.0880441 -1.9439808 1.1075177 0.00079577472 0.0079577472 0 0
TSP BP 4.8752131 51.351585 26.794852 1.6900821 -0.11585187 -2.4215844 0.5 0.071339788 0.77853246 0.1246195 0.37109077 3.1515444 -0.46092935 0.00079577472 0.0079577472 0 0
TSP BP 8.4930918 51.720129 27.928476 -0.23571105 -0.81903194 -0.82292503 0.5 2.772588 -0.20968184 -0.013625915 0.14234127 -1.6166341 1.6078506 0.00079577472 0.0079577472 0 0
TSP BP 5.7073651 51.287802 27.353622 1.1142089 -1.0098677 -1.073791 0.5 0.56786627 -0.36874328 0.35289071 -0.5954169 -2.5569383 1.0695711 0.00079577472 0.0079577472 0 0
TSP BP 3.2356247 48.121084 26.735691 0.22695272 -0.028792227 -0.056324582 0.5 -0.50674341 2.7822769 -0.22010877 0.13085318 0.37388148 0.27482317 0.00079577472 0.0079577472 0 0
TSP BP 11.637951 49.690012 19.947933 6.7827011 0.32193726 -11.478105 0.5 0.38734195 4.4490444 2.3069808 1.0299533 4.3083023 1.5339289 0.00079577472 0.0079577472 0 0
TSP BP 12.709599 50.961046 14.234334 8.2636819 1.0137407 -14.390428 0.5 0.76783018 4.3118382 -2.1423373 0.25632094 3.6508219 -0.98110406 0.00079577472 0.0079577472 0 0
TSP BP 8.3752127 51.287146 30.023558 -0.068520699 0.045399702 -0.13822144 0.5 0.99705316 -0.041998053 0.47384017 0.96607127 0.42114407 0.014781014 0.00079577472 0.0079577472 0 0
TSP BP 4.4686987 53.779357 27.917356 0.2653299 -0.32023614 -0.23480721 0.5 2.3038922 1.5050158 1.3423463 0.97687258 0.63783625 0.044554426 0.00079577472 0.0079577472 0 0
TSP BP 8.7948599 50.683397 29.055125 -0.37840231 -0.136619 -1.3856598 0.5 0.87965629 -3.0210524 0.77460745 0.19857792 -2.8529177 0.16170978 0.00079577472 0.0079577472 0 0
TSP BP 7.7202231 47.362578 29.564683 -0.041929063 0.33487266 -0.32721426 0.5 0.49447673 -1.4406594 -0.39107669 0.063705952 0.58564645 0.043463581 0.00079577472 0.0079577472 0 0
TSP BP 9.1723372 48.807144 30.463863 -0.092073194 -0.12028093 -0.38932376 0.5 0.97207858 -0.36529548 -1.0030776 -0.2065909 0.17073146 0.056734284 0.00079577472 0.0079577472 0 0
TSP BP 6.9062241 50.967812 25.082888 4.0454455 -0.36728398 -5.5647643 0.5 -0.90511152 0.47972666 -0.30821806 1.5172056 0.75656759 0.3505892 0.00079577472 0.0079577472 0 0
TSP BP 3.592466 52.28419 27.314351 0.32498117 -0.14024662 -0.028518134 0.5 -0.15613261 0.18653161 0.27754999 -0.31636217 -0.0067245138 0.13355962 0.00079577472 0.0079577472 0 0
TSP BP 6.9845352 49.175857 26.847341 2.5083378 1.3308557 -3.6253011 0.5 -1.7984383 -1.1797852 -0.81721574 -1.1597929 -1.2163629 1.7297202 0.00079577472 0.0079577472 0 0
TSP BP 5.6119422 52.270562 27.796301 0.44214178 -0.6021161 -0.72024491 0.5 0.32626584 0.43739163 -0.16534274 -0.63714097 0.52775466 -1.1693023 0.00079577472 0.0079577472 0 0
TSP BP 9.2727183 47.885285 30.838085 -0.048481995 -0.060223454 -0.21986738 0.5 0.0834102 -2.38888 -0.55528559 -0.10374195 -0.35116272 0.089199234 0.00079577472 0.0079577472 0 0
TSP BP 9.7143653 50.496941 20.387283 5.204288 0.60630113 -10.875695 0.5 4.8952304 0.55534472 3.7470033 3.283923 1.103309 3.5894809 0.00079577472 0.0079577472 0 0
TSP BP 16.081782 50.827568 11.114289 10.055563 -0.13327563 -16.624104 0.5 1.2920595 -2.5166171 -0.32461171 0.74761301 -1.8126317 -0.27150091 0.00079577472 0.0079577472 0 0
TSP BP 9.0066829 52.041237 29.844487 0.011753431 -0.00063986317 -0.026678727 0.5 0.068732856 -0.54267784 1.0042926 -0.24338627 -0.063490355 -0.038357973 0.00079577472 0.0079577472 0 0
TSP BP 4.5970633 48.545863 26.971395 0.77658831 0.19039044 -0.35072343 0.5 0.4910438 -1.3348733 0.11576495 0.77125257 -1.0776675 1.700794 0.00079577472 0.0079577472 0 0
TSP BP 2.6204792 47.242116 26.900461 0.20250596 0.18939074 -0.045025261 0.5 -0.61093857 -0.19937527 0.97289389 -0.36994599 0.2930203 -0.17476172 0.00079577472 0.0079577472 0 0
TSP BP 2.2076392 52.258046 27.011198 0.39447737 -0.25109131 -0.093684898 0.5 1.6785809 0.89513278 0.54945003 0.64055454 0.75978056 0.45239402 0.00079577472 0.0079577472 0 0
TSP BP 5.9375546 52.126136 26.859127 0.59248772 -0.42215144 -0.78527313 0.5 -0.61323838 -1.2466667 0.54434194 0.60339771 -0.5801422 2.2273947 0.00079577472 0.0079577472 0 0
TSP BP 8.5021668 46.091571 30.395151 0.0058411016 0.27099649 -0.25364495 0.5 -2.2137414 -0.4581602 -0.91431346 0.681629 -0.12064268 0.36983398 0.00079577472 0.0079577472 0 0
TSP BP 2.2690666 51.23067 26.994676 0.20904887 -0.138489 -0.062659367 0.5 0.9943732 1.5737863 0.29951573 0.20228603 0.3720084 0.13170914 0.00079577472 0.0079577472 0 0
TSP BP 3.6383058 46.22914 27.428297 0.31396508 0.19150841 -0.028405704 0.5 -1.3586259 0.19958394 -2.6227016 -0.012152476 0.18889438 -0.66623523 0.00079577472 0.0079577472 0 0
TSP BP 7.1389692 52.159117 29.063324 0.016860267 -0.10187632 -0.2337559 0.5 0.19278835 -0.45512948 0.77745112 0.12583438 0.15745909 0.40829091 0.00079577472 0.0079577472 0 0
TSP BP 6.3729356 52.103728 28.423088 0.19783835 -0.58439687 -0.4260935 0.5 -0.52310574 -0.058684568 0.47277101 -0.98764041 -0.82480695 0.0029738608 0.00079577472 0.0079577472 0 0
TSP BP 8.5013893 49.85348 24.843315 3.8149995 1.3051244 -7.8569339 0.5 1.8194917 -0.8546064 1.1203276 0.99377138 -0.52287566 1.1710611 0.00079577472 0.0079577472 0 0
TSP BP 11.796205 50.335999 15.876459 7.3410933 -1.412635 -12.506174 0.5 8.635212 8.4262767 5.4264346 9.6455444 5.6379186 5.8098306 0.00079577472 0.0079577472 0 0
TSP BP 4.5446858 50.403242 27.132736 0.87258831 -0.044793414 -0.41186571 0.5 -0.21780203 0.79770934 0.12128129 -0.86850529 0.49046178 -0.32547272 0.00079577472 0.0079577472 0 0
TSP BP 6.5642191 48.610586 25.353612 2.6644334 0.36239517 -3.6489026 0.5 -1.7176036 0.81637994 -2.6729731 -1.4413248 1.6090603 -1.486934 0.00079577472 0.0079577472 0 0
TSP BP 8.289503 53.882495 30.242446 -0.015109879 -0.057122798 -0.079864461 0.5 2.6417705 -1.0250027 1.7591928 0.036797166 -0.024661671 -0.035561284 0.00079577472 0.0079577472 0 0
TSP BP 9.2180176 49.791562 30.634494 -0.15504401 -0.10090877 -0.45510436 0.5 -0.27093513 -3.7266834 0.59461596 0.10341459 -0.91791164 0.16488478 0.00079577472 0.0079577472 0 0
TSP BP 14.255984 50.316486 12.948183 8.8093964 0.71425992 -15.868458 0.5 2.1662453 -1.4008522 -3.2267433 1.5752365 -1.0498344 -1.9092355 0.00079577472 0.0079577472 0 0
TSP BP 4.9943688 52.712804 28.447327 0.88962339 -0.71897912 -0.18832455 0.5 0.037650452 -0.87431897 -0.39532362 0.51489057 0.12869199 -0.032632666 0.00079577472 0.0079577472 0 0
TSP BP 8.3908003 49.980842 27.486509 0.030280664 -0.66024916 -2.7565189 0.5 -2.2919608 -4.8900172 0.35383966 0.86089226 -3.5174203 -1.4012472 0.00079577472 0.0079577472 0 0
TSP BP 2.0081532 49.204455 27.064599 0.47628835 0.079071898 -0.15607612 0.5 0.062078398 1.7921312 0.13424781 0.24196595 0.099885948 -0.024905765 0.00079577472 0.0079577472 0 0
TSP BP 6.8861653 53.578828 29.081403 0.11056089 -0.37019115 -0.338778 0.5 0.84831058 0.2689235 0.15493089 0.79078643 -0.48014759 0.63392209 0.00079577472 0.0079577472 0 0
TSP BP 5.3476185 53.74665 28.393405 0.45378077 -0.69398107 -0.63414004 0.5 1.2321183 0.49423473 1.426982 -1.3275669 -0.2791614 -1.0661674 0.00079577472 0.0079577472 0 0
TSP BP 6.1738773 47.232484 28.532418 0.040980787 0.18963074 -0.31123061 0.5 0.83852886 0.27816389 0.4944723 1.5406045 -0.27284716 -0.41886241 0.00079577472 0.0079577472 0 0
TSP BP 3.0593856 50.57579 26.82486 0.39345017 -0.26663217 -0.62791969 0.5 -0.3323249 -0.68369073 0.14861547 -0.90151015 -1.0762771 0.96803691 0.00079577472 0.0079577472 0 0
TSP BP 7.6936398 49.039726 24.878806 3.6293371 0.48104912 -6.7194387 0.5 -1.6892501 1.9243091 1.3394625 -2.6880623 2.4193095 -0.080302316 0.00079577472 0.0079577472 0 0
TSP BP 8.3728951 50.292426 29.924069 -0.33932151 0.13772677 -0.93033024 0.5 0.2436319 1.1093839 -0.091896575 0.4697171 0.37111513 -0.6038337 0.00079577472 0.0079577472 0 0
TSP BP 3.7464992 49.955398 27.573076 0.53832292 0.26773919 -0.13269079 0.5 -0.5395242 -0.39174618 -0.071405743 -0.92909253 -1.1850883 0.089967743 0.00079577472 0.0079577472 0 0
TSP BP 7.3587929 49.790209 27.899324 1.8871213 0.3514347 -4.6681665 0.5 -0.3036338 -1.5338392 0.69272855 -0.97532252 -0.62299418 0.80415337 0.00079577472 0.0079577472 0 0
TSP BP 8.316795 52.380757 30.483469 -0.12617085 -0.1333763 -0.040782338 0.5 -0.16023638 -0.31771735 -0.056447006 0.22721539 0.0074587201 0.29931372 0.00079577472 0.0079577472 0 0
TSP BP 7.5987449 45.663904 30.367414 0.073974493 0.17167243 -0.17326148 0.5 -1.4309071 -0.083794975 -0.35029072 -0.5931583 0.30864619 -0.062184071 0.00079577472 0.0079577472 0 0
TSP BP 8.1580124 49.296589 29.859556 -0.070752967 0.14554472 -0.37900131 0.5 -0.46469094 0.40819705 0.02585076 -0.42712136 0.89813829 0.1555206 0.00079577472 0.0079577472 0 0
TSP BP 14.531863 50.320785 16.751702 8.4006946 -1.4091554 -12.8919 0.5 10.086098 0.84891259 8.6050231 10.071755 0.63652008 7.812806 0.00079577472 0.0079577472 0 0
TSP BP 7.1790567 47.928075 28.919381 0.14606273 0.65236961 -0.48397544 0.5 0.22703178 0.21706432 0.19822207 -0.00017085532 0.86362973 0.36969925 0.00079577472 0.0079577472 0 0
TSP BP 7.4532836 51.635701 29.8552 -0.10280142 -0.013914521 -0.11665821 0.5 0.18541557 -0.048744736 0.40074613 -0.19103259 -0.6834828 0.1130207 0.00079577472 0.0079577472 0 0
TSP BP 3.9105496 47.005945 27.997766 0.42364411 0.33011708 -0.12388013 0.5 0.170316 -0.15410099 0.82662265 -0.15777779 -0.18841277 0.22598235 0.00079577472 0.0079577472 0 0
TSP BP 6.3897928 46.314604 28.918047 0.030326196 0.18798337 -0.12728653 0.5 -1.1516769 0.27305571 -1.740513 -0.69749616 0.53921293 0.37034819 0.00079577472 0.0079577472 0 0
TSP BP 8.0683765 47.01165 30.438524 0.30584517 0.36954843 -0.41036487 0.5 -0.036913435 1.4673004 0.13349308 0.31509131 -0.4459887 0.019802517 0.00079577472 0.0079577472 0 0
TSP BP 1.8661198 46.618149 27.104343 0.2423116 0.14336179 -0.0084813179 0.5 0.081344571 1.0114468 0.83594271 0.15819367 -0.2485158 0.35943427 0.00079577472 0.0079577472 0 0
TSP BP 3.671201 50.966795 27.51238 -0.13893772 0.026026458 -0.28688141 0.5 0.64985752 -0.41603518 -0.046546789 -0.063471123 -0.6069934 -1.0224446 0.00079577472 0.0079577472 0 0
TSP BP 6.2813498 49.765426 27.24647 1.7906245 -0.068263151 -2.8864286 0.5 0.61906621 2.3805533 -0.23855318 1.0353689 5.4234984 2.452674 0.00079577472 0.0079577472 0 0
TSP BP 6.81887 51.185779 28.87528 -0.42074854 -0.44209364 -0.94800045 0.5 0.67209704 1.1137712 0.33827523 0.71567584 0.2276385 -0.26415316 0.00079577472 0.0079577472 0 0