MercuryDPM 0.14 name CoilSelfTest revision 3137 repository https://svn.mercurydpm.org/SourceCode/MercuryLab
dataFile    fileType ONE_FILE saveCount 1 counter 501 lastSavedTimeStep 500
fStatFile   fileType ONE_FILE saveCount 1 counter 501 lastSavedTimeStep 500
eneFile     fileType ONE_FILE saveCount 1 counter 501 lastSavedTimeStep 500
restartFile fileType ONE_FILE saveCount 1 counter 501 lastSavedTimeStep 500
statFile    fileType ONE_FILE saveCount 1 counter 0
interactionFile fileType NO_FILE saveCount 0 counter 0
xMin -1 xMax 1 yMin -1 yMax 5 zMin 0 zMax 2
timeStep 0.001 time 0.5 ntimeSteps 500 timeMax 0.5
systemDimensions 3 particleDimensions 3 gravity 0 -9.8 0 writeVTK 0 NO_FILE NO_FILE 0 0 0 random  0 1103515245 12345 1073741824 607 273 784607267
Species 1
LinearViscoelasticSpecies id 0 density 1000 stiffness 66480.4397719024 dissipation 149.552243520995
Walls 7
InfiniteWall id 0 indSpecies 0 position -1 0 0 orientation 0 0 1 0 velocity 0 0 0 angularVelocity 0 0 0 force -14975.1813553637 0 0 torque 0 0 0
InfiniteWall id 1 indSpecies 0 position 1 0 0 orientation 1 0 0 0 velocity 0 0 0 angularVelocity 0 0 0 force 15262.9965985535 0 0 torque 0 0 0
InfiniteWall id 2 indSpecies 0 position 0 -1 0 orientation 0.707106781186548 0 0 -0.707106781186548 velocity 0 0 0 angularVelocity 0 0 0 force 0 -33310.4903326078 0 torque 0 0 0
InfiniteWall id 3 indSpecies 0 position 0 5 0 orientation 0.707106781186548 0 0 0.707106781186548 velocity 0 0 0 angularVelocity 0 0 0 force 0 0 0 torque 0 0 0
InfiniteWall id 4 indSpecies 0 position 0 0 0 orientation 0.707106781186548 0 0.707106781186548 0 velocity 0 0 0 angularVelocity 0 0 0 force 0 0 -6132.3208955556 torque 0 0 0
InfiniteWallWithHole id 5 indSpecies 0 position 0 0 0 orientation 1 0 0 0 velocity 0 0 0 angularVelocity 0 0 0 force 319.720960294997 -122.556349031073 0 torque 0 0 0 normal 0 0 1 factor 1 position 2 holeRadius 1
Coil id 6 indSpecies 0 position 0 0 0 orientation 1 0 0 0 velocity 0 0 0 angularVelocity 0 0 0 force 7567.47328043621 -22731.7272665613 -7716.72386911503 torque 0 0 0 Start 0 0 0 Length 1 Radius 0.8 Revolutions 2 Omega -1 Thickness 0.1 Offset 0
Boundaries 0
Particles 197
BaseParticle id 0 indSpecies 0 position -0.749136511929561 -0.84357157625707 1.25467612410261 orientation 1 0 0 0 velocity 0.0439145757329159 0.195128288391876 0.231877088479138 angularVelocity 0 0 0 force 64.3116273329094 -664.01524578585 327.632052502515 torque 0 0 0 radius 0.2 invMass 0.0298415518297304
BaseParticle id 1 indSpecies 0 position -0.750046712642641 -0.878274375728035 1.75060499943143 orientation 1 0 0 0 velocity -0.00298107180156874 0.654729100427016 0.0395421100662464 angularVelocity 0 0 0 force -4.86481329172043 839.232448223822 69.1780671610925 torque 0 0 0 radius 0.2 invMass 0.0298415518297304
BaseParticle id 2 indSpecies 0 position -0.75613371574569 -0.495231702198814 1.21902925365118 orientation 1 0 0 0 velocity -0.25002759969112 0.66745341172494 -1.19779085360881 angularVelocity 0 0 0 force -252.453272189629 564.475264923583 -1109.28825126392 torque 0 0 0 radius 0.2 invMass 0.0298415518297304
BaseParticle id 3 indSpecies 0 position -0.749627824005738 -0.539014271000028 1.74464836666486 orientation 1 0 0 0 velocity 0.0146337608560901 1.27802240375006 -0.259160736699498 angularVelocity 0 0 0 force 8.4919416021039 883.308598127165 -340.034984269056 torque 0 0 0 radius 0.2 invMass 0.0298415518297304
BaseParticle id 4 indSpecies 0 position -0.728318768406886 -0.153907753213441 1.33458966571283 orientation 1 0 0 0 velocity 0.670394424650706 0.372211078480733 1.87969275199227 angularVelocity 0 0 0 force 754.23819105685 -1855.20944695047 826.816119837025 torque 0 0 0 radius 0.2 invMass 0.0298415518297304
BaseParticle id 5 indSpecies 0 position -0.750101959530542 -0.182369249115919 1.7800545821473 orientation 1 0 0 0 velocity 0.0930674719565011 1.31142008941555 0.974322322252057 angularVelocity 0 0 0 force 220.730510252397 436.650352220967 695.767289633082 torque 0 0 0 radius 0.2 invMass 0.0298415518297304
BaseParticle id 6 indSpecies 0 position -0.778670966778939 0.187249368011474 1.33057285741444 orientation 1 0 0 0 velocity -0.734277723767002 -1.26157470266575 2.81381431547584 angularVelocity 0 0 0 force -81.731975807425 -1970.13832315529 -293.626867527037 torque 0 0 0 radius 0.2 invMass 0.0298415518297304
BaseParticle id 7 indSpecies 0 position -0.790961312838634 0.175176902934993 1.70267115474766 orientation 1 0 0 0 velocity -1.38349238982249 1.64833253351862 0.208110632425604 angularVelocity 0 0 0 force -362.012705547992 -337.988750373697 1735.5200699121 torque 0 0 0 radius 0.2 invMass 0.0298415518297304
BaseParticle id 8 indSpecies 0 position -0.75952532757558 0.240838519201889 0.496609149427221 orientation 1 0 0 0 velocity 0.967429406036601 -3.12703370923188 -1.38431468226312 angularVelocity 0 0 0 force 220.037600515902 -1705.24366373062 -4987.42326506608 torque 0 0 0 radius 0.2 invMass 0.0298415518297304
BaseParticle id 9 indSpecies 0 position -0.80737612252347 0.285698880531238 0.972923439003603 orientation 1 0 0 0 velocity -1.05911791366439 -1.93664034353715 1.56808990260361 angularVelocity 0 0 0 force 58.8165401412077 150.575116085818 464.85436877456 torque 0 0 0 radius 0.2 invMass 0.0298415518297304
BaseParticle id 10 indSpecies 0 position -0.482799293253437 0.379019041103656 1.49171760184873 orientation 1 0 0 0 velocity 2.93112513424545 -0.507229817631174 -1.45549071603887 angularVelocity 0 0 0 force -3208.49959071437 1317.79474268694 335.313195348212 torque 0 0 0 radius 0.2 invMass 0.0298415518297304
BaseParticle id 11 indSpecies 0 position -0.623888750023858 0.264964812181964 2.18756760367066 orientation 1 0 0 0 velocity 2.33409928200594 -3.06303291295298 3.898298263769 angularVelocity 0 0 0 force 0 -328.401152055253 0 torque 0 0 0 radius 0.2 invMass 0.0298415518297304
BaseParticle id 12 indSpecies 0 position -0.841171290488733 0.528678145761043 0.180993591322695 orientation 1 0 0 0 velocity 1.24642205636443 -1.65015736578786 0.539910494582403 angularVelocity 0 0 0 force -3479.87905024095 1440.82544368232 238.712327760322 torque 0 0 0 radius 0.2 invMass 0.0298415518297304
BaseParticle id 13 indSpecies 0 position -0.866795459536998 0.570386707030402 0.657110297874453 orientation 1 0 0 0 velocity 2.05205274060141 -1.47512773770134 -1.85045235721401 angularVelocity 0 0 0 force 329.221713963943 2395.52845986413 -579.844374070277 torque 0 0 0 radius 0.2 invMass 0.0298415518297304
BaseParticle id 14 indSpecies 0 position -0.828385675224997 0.507322438360887 1.29048974677644 orientation 1 0 0 0 velocity -1.10217382485076 -1.35349472497048 1.89435530390644 angularVelocity 0 0 0 force 733.978501723606 2721.87942517056 80.9344997610069 torque 0 0 0 radius 0.2 invMass 0.0298415518297304
BaseParticle id 15 indSpecies 0 position -0.778075559842057 0.557954583942426 1.71680938843132 orientation 1 0 0 0 velocity -1.1199903608583 -3.64211181792998 0.310071881848855 angularVelocity 0 0 0 force -27.5684193537193 323.871555317051 -78.2626238547129 torque 0 0 0 radius 0.2 invMass 0.0298415518297304
BaseParticle id 16 indSpecies 0 position -0.865858621849685 0.900659134108148 0.18882200322804 orientation 1 0 0 0 velocity 2.12178867809658 -3.03430094509068 -1.20155774687773 angularVelocity 0 0 0 force 3124.66194465932 158.417027849373 702.64229452229 torque 0 0 0 radius 0.2 invMass 0.0298415518297304
BaseParticle id 17 indSpecies 0 position -0.823084839087715 0.906224143558297 0.854403599139494 orientation 1 0 0 0 velocity 0.0413374634443521 -2.89197597190866 1.87136815285616 angularVelocity 0 0 0 force -492.295290711306 1314.87605039434 -78.9298424806495 torque 0 0 0 radius 0.2 invMass 0.0298415518297304
BaseParticle id 18 indSpecies 0 position -0.739500932247204 0.865989081313624 1.27543689420934 orientation 1 0 0 0 velocity 0.390424486868736 -3.34652492950917 0.423007208751044 angularVelocity 0 0 0 force 583.921154982242 207.495417614276 34.0173153002926 torque 0 0 0 radius 0.2 invMass 0.0298415518297304
BaseParticle id 19 indSpecies 0 position -0.750427675171016 0.934929650177632 1.76164550282401 orientation 1 0 0 0 velocity 0.0225901181451135 -3.55433500333256 0.325082413199838 angularVelocity 0 0 0 force 89.9742368064179 -261.828371926154 187.650536614858 torque 0 0 0 radius 0.2 invMass 0.0298415518297304
BaseParticle id 20 indSpecies 0 position -0.692751049067854 1.22737620208077 0.245301331446714 orientation 1 0 0 0 velocity 1.80078934092918 -3.27873997781046 0.056790919462779 angularVelocity 0 0 0 force 1027.50710675919 -91.8022870307944 242.373405937664 torque 0 0 0 radius 0.2 invMass 0.0298415518297304
BaseParticle id 21 indSpecies 0 position -0.697725034906779 1.24668897401524 0.716755179188389 orientation 1 0 0 0 velocity 1.36756711843538 -3.37921046579623 -0.960093820773716 angularVelocity 0 0 0 force 402.808875452784 -984.656310586368 -349.873385432928 torque 0 0 0 radius 0.2 invMass 0.0298415518297304
BaseParticle id 22 indSpecies 0 position -0.75070806066956 1.24019167496311 1.24671186902371 orientation 1 0 0 0 velocity -0.0316718166424584 -3.3895475403558 -0.115535722471946 angularVelocity 0 0 0 force -50.3784663413954 395.551775565038 -132.824333691403 torque 0 0 0 radius 0.2 invMass 0.0298415518297304
BaseParticle id 23 indSpecies 0 position -0.74991936480213 1.31701637221625 1.74897289423467 orientation 1 0 0 0 velocity 0.00288696813446902 -3.60269913088577 -0.0403533120838891 angularVelocity 0 0 0 force 1.82844533601704 -276.373230006006 -42.4553480960704 torque 0 0 0 radius 0.2 invMass 0.0298415518297304
BaseParticle id 24 indSpecies 0 position -0.75575756212189 1.60074767140135 0.251594970387101 orientation 1 0 0 0 velocity -0.275152406468007 -2.93908884169353 0.0598414774698921 angularVelocity 0 0 0 force -272.958158582167 -2259.5359168953 37.1653864820123 torque 0 0 0 radius 0.2 invMass 0.0298415518297304
BaseParticle id 25 indSpecies 0 position -0.757656898859115 1.61967803064665 0.7542712973176 orientation 1 0 0 0 velocity -0.321917383055859 -3.00815842885376 0.185815525471802 angularVelocity 0 0 0 force -269.685592800193 -2310.61809049437 163.667557195211 torque 0 0 0 radius 0.2 invMass 0.0298415518297304
BaseParticle id 26 indSpecies 0 position -0.749959415914508 1.62774447608617 1.25022342386709 orientation 1 0 0 0 velocity 0.00141697339014934 -3.8987374089145 0.00754872122660833 angularVelocity 0 0 0 force 1.8696102018267 -596.295399122509 8.8766909256605 torque 0 0 0 radius 0.2 invMass 0.0298415518297304
BaseParticle id 27 indSpecies 0 position -0.750006076489965 1.69898707294621 1.750076530403 orientation 1 0 0 0 velocity -0.000297012166195032 -3.16728737419002 0.0037265272062852 angularVelocity 0 0 0 force -0.305504971196887 -1947.64774421176 3.88222497143365 torque 0 0 0 radius 0.2 invMass 0.0298415518297304
BaseParticle id 28 indSpecies 0 position -0.749758901108089 1.95198192406864 0.24991673986377 orientation 1 0 0 0 velocity 0.0225786946633067 -2.79398326449332 -0.00714609600458127 angularVelocity 0 0 0 force 56.2976918311794 977.370282637107 -15.8335723912321 torque 0 0 0 radius 0.2 invMass 0.0298415518297304
BaseParticle id 29 indSpecies 0 position -0.749558148003759 1.97046185746786 0.749766071745777 orientation 1 0 0 0 velocity 0.0362708513290387 -2.55946631247771 -0.0196865751520954 angularVelocity 0 0 0 force 76.5389041710903 713.681648010101 -42.5050252494618 torque 0 0 0 radius 0.2 invMass 0.0298415518297304
BaseParticle id 30 indSpecies 0 position -0.750002148420129 2.00920689375276 1.24998797654972 orientation 1 0 0 0 velocity -0.000105186841828159 -3.45842386824944 -0.000585314005337745 angularVelocity 0 0 0 force -0.135354054790909 64.8239249684964 -0.746175915199508 torque 0 0 0 radius 0.2 invMass 0.0298415518297304
BaseParticle id 31 indSpecies 0 position -0.749999709633151 2.05566486203963 1.74999629142981 orientation 1 0 0 0 velocity 2.47487954611862e-05 -2.26129337221888 -0.000313945350253573 angularVelocity 0 0 0 force 0.0510487038485693 -29.2243464514646 -0.643690946525134 torque 0 0 0 radius 0.2 invMass 0.0298415518297304
BaseParticle id 32 indSpecies 0 position -0.750003118444762 2.32322171994461 0.250001198960326 orientation 1 0 0 0 velocity -0.000357745631195983 -2.83919472464648 0.000131936013653818 angularVelocity 0 0 0 force -1.27324420174195 82.9178265323703 0.440809809858507 torque 0 0 0 radius 0.2 invMass 0.0298415518297304
BaseParticle id 33 indSpecies 0 position -0.750008071639425 2.3380627351702 0.750004006472944 orientation 1 0 0 0 velocity -0.000846934481435384 -2.60900408459452 0.000434337047245926 angularVelocity 0 0 0 force -2.69260347088573 -472.513578838843 1.42229505948454 torque 0 0 0 radius 0.2 invMass 0.0298415518297304
BaseParticle id 34 indSpecies 0 position -0.74999988175254 2.3985416778879 1.25000066788854 orientation 1 0 0 0 velocity 4.57130781132838e-06 -3.92206672168295 2.5769692873141e-05 angularVelocity 0 0 0 force 0.00519130063246736 -1542.26063192547 0.0291003943927194 torque 0 0 0 radius 0.2 invMass 0.0298415518297304
BaseParticle id 35 indSpecies 0 position -0.75000000455905 2.42051129248996 1.750000059552 orientation 1 0 0 0 velocity -5.24845023553695e-07 -3.02602481932582 6.76913540920175e-06 angularVelocity 0 0 0 force -0.00201865204629453 -792.24886313989 0.0258025903630471 torque 0 0 0 radius 0.2 invMass 0.0298415518297304
BaseParticle id 36 indSpecies 0 position -0.749999995529523 2.70463784386153 0.249999998245988 orientation 1 0 0 0 velocity 1.45549197676556e-06 -4.62802149942839 -5.66779210742096e-07 angularVelocity 0 0 0 force 0.0123259770039224 1177.02759392416 -0.00473915434223854 torque 0 0 0 radius 0.2 invMass 0.0298415518297304
BaseParticle id 37 indSpecies 0 position -0.749999967339283 2.70724414383872 0.749999984228408 orientation 1 0 0 0 velocity 7.82435649815344e-06 -4.27032605601399 -3.82205878069549e-06 angularVelocity 0 0 0 force 0.0505501088597707 1974.34678046157 -0.0250885203680174 torque 0 0 0 radius 0.2 invMass 0.0298415518297304
BaseParticle id 38 indSpecies 0 position -0.750000007018265 2.76455224970321 1.2499999603102 orientation 1 0 0 0 velocity -5.29440777378944e-07 -2.09734234380391 -2.99301378405138e-06 angularVelocity 0 0 0 force -0.000725365193848572 -690.827648689938 -0.00409760693584142 torque 0 0 0 radius 0.2 invMass 0.0298415518297304
BaseParticle id 39 indSpecies 0 position -0.749999999901066 2.77365003010991 1.74999999867294 orientation 1 0 0 0 velocity 1.18146381207029e-08 -1.66960734094399 -1.56697220815511e-07 angularVelocity 0 0 0 force 3.9229545183303e-05 -328.385254477833 -0.000512998623992296 torque 0 0 0 radius 0.2 invMass 0.0298415518297304
BaseParticle id 40 indSpecies 0 position -0.75 3.13214285714285 0.25 orientation 1 0 0 0 velocity 0 -4.90000000000006 0 angularVelocity 0 0 0 force 0 -328.401152055253 0 torque 0 0 0 radius 0.2 invMass 0.0298415518297304
BaseParticle id 41 indSpecies 0 position -0.75 3.13214285714285 0.75 orientation 1 0 0 0 velocity 0 -4.90000000000006 0 angularVelocity 0 0 0 force 0 -328.401152055253 0 torque 0 0 0 radius 0.2 invMass 0.0298415518297304
BaseParticle id 42 indSpecies 0 position -0.749999999975898 3.13445533044012 1.25000000013633 orientation 1 0 0 0 velocity 6.53306812840044e-09 -4.39858170398971 3.69499868158386e-08 angularVelocity 0 0 0 force 4.47605792719546e-05 2022.66577111096 0.000253130862420739 torque 0 0 0 radius 0.2 invMass 0.0298415518297304
BaseParticle id 43 indSpecies 0 position -0.750000000000375 3.13564176743086 1.75000000000508 orientation 1 0 0 0 velocity -1.05307710097484e-10 -4.21195583599474 1.41964087803435e-09 angularVelocity 0 0 0 force -7.99298751003162e-07 2585.12008634589 1.0721805802276e-05 torque 0 0 0 radius 0.2 invMass 0.0298415518297304
BaseParticle id 44 indSpecies 0 position -0.75 3.56071428571428 0.25 orientation 1 0 0 0 velocity 0 -4.90000000000006 0 angularVelocity 0 0 0 force 0 -328.401152055253 0 torque 0 0 0 radius 0.2 invMass 0.0298415518297304
BaseParticle id 45 indSpecies 0 position -0.75 3.56071428571428 0.75 orientation 1 0 0 0 velocity 0 -4.90000000000006 0 angularVelocity 0 0 0 force 0 -328.401152055253 0 torque 0 0 0 radius 0.2 invMass 0.0298415518297304
BaseParticle id 46 indSpecies 0 position -0.75 3.56071428571428 1.25 orientation 1 0 0 0 velocity 0 -4.90000000000006 0 angularVelocity 0 0 0 force 0 -328.401152055253 0 torque 0 0 0 radius 0.2 invMass 0.0298415518297304
BaseParticle id 47 indSpecies 0 position -0.75 3.56071428571428 1.75 orientation 1 0 0 0 velocity 0 -4.90000000000006 0 angularVelocity 0 0 0 force 0 -328.401152055253 0 torque 0 0 0 radius 0.2 invMass 0.0298415518297304
BaseParticle id 48 indSpecies 0 position -0.250050596170469 -0.874364450130585 1.24969759152103 orientation 1 0 0 0 velocity -0.0035549109956002 0.694062119739468 -0.0199523572094233 angularVelocity 0 0 0 force -10.2485028753748 627.114736125821 -47.7056333395918 torque 0 0 0 radius 0.2 invMass 0.0298415518297304
BaseParticle id 49 indSpecies 0 position -0.249999502107857 -0.894586346044412 1.74999343381974 orientation 1 0 0 0 velocity 5.7189296614971e-05 -0.139669141403421 -0.000742731365327219 angularVelocity 0 0 0 force 0.195503782346668 170.385193238155 -2.50254525824068 torque 0 0 0 radius 0.2 invMass 0.0298415518297304
BaseParticle id 50 indSpecies 0 position -0.0348224024249875 -0.560029164197178 0.19747488395866 orientation 1 0 0 0 velocity 0.182101808388734 0.473633250448276 0.467113011738488 angularVelocity 0 0 0 force 50.0745721646523 -23.8117934036824 -121.373689903374 torque 0 0 0 radius 0.2 invMass 0.0298415518297304
BaseParticle id 51 indSpecies 0 position -0.154764705111041 -0.601762648803302 0.617001797200462 orientation 1 0 0 0 velocity 0.135232074887094 0.597444569446515 -0.344323250866566 angularVelocity 0 0 0 force 36.1907431801998 -247.170227854202 -115.693012979035 torque 0 0 0 radius 0.2 invMass 0.0298415518297304
BaseParticle id 52 indSpecies 0 position -0.249152612195598 -0.533880997149943 1.253877606375 orientation 1 0 0 0 velocity 0.113109038310564 1.14264088109134 0.421230398600807 angularVelocity 0 0 0 force 439.054055613374 252.29084454454 1454.58994154845 torque 0 0 0 radius 0.2 invMass 0.0298415518297304
BaseParticle id 53 indSpecies 0 position -0.25001001371158 -0.582167979241919 1.75012798755439 orientation 1 0 0 0 velocity -0.000886184033457786 -0.0504009652682009 0.0111705186348982 angularVelocity 0 0 0 force -2.22803867988272 847.778853178015 27.700950148074 torque 0 0 0 radius 0.2 invMass 0.0298415518297304
BaseParticle id 54 indSpecies 0 position -0.417929092477948 -0.33806562760755 0.373968815249198 orientation 1 0 0 0 velocity 0.424038513250431 -0.2864954366822 0.979492997730403 angularVelocity 0 0 0 force 1342.94426547241 846.989303111463 467.802878917599 torque 0 0 0 radius 0.2 invMass 0.0298415518297304
BaseParticle id 55 indSpecies 0 position -0.354588392065461 -0.378437601065767 0.923000115070244 orientation 1 0 0 0 velocity -0.354300669426471 0.797367033865571 1.67386300895776 angularVelocity 0 0 0 force -680.15552016649 -267.283238248509 -2112.8938898678 torque 0 0 0 radius 0.2 invMass 0.0298415518297304
BaseParticle id 56 indSpecies 0 position -0.251993992704042 -0.175559604067164 1.23685123053269 orientation 1 0 0 0 velocity -0.0343813391015466 1.34334601654969 -0.407043383807209 angularVelocity 0 0 0 force 195.161041613123 456.227961097166 193.029240993063 torque 0 0 0 radius 0.2 invMass 0.0298415518297304
BaseParticle id 57 indSpecies 0 position -0.249865578713503 -0.252837423276668 1.74833735086411 orientation 1 0 0 0 velocity 0.00864911281348845 0.373937948117569 -0.104465637446027 angularVelocity 0 0 0 force 15.3492996511223 961.898280571955 -171.207360044864 torque 0 0 0 radius 0.2 invMass 0.0298415518297304
BaseParticle id 58 indSpecies 0 position -0.243891649056152 0.179085452945372 1.31082208767888 orientation 1 0 0 0 velocity 0.351726441006843 0.863563022104501 1.37982641119195 angularVelocity 0 0 0 force 1997.65942340721 -900.289094572232 -527.126575899881 torque 0 0 0 radius 0.2 invMass 0.0298415518297304
BaseParticle id 59 indSpecies 0 position -0.251253108818013 0.0956031137030054 1.76355064212175 orientation 1 0 0 0 velocity -0.0685584897238969 0.725041372318922 0.497822405698686 angularVelocity 0 0 0 force -157.007044048818 198.603901233986 298.623920898875 torque 0 0 0 radius 0.2 invMass 0.0298415518297304
BaseParticle id 60 indSpecies 0 position -0.187528313815216 0.517939539214528 1.15015328290912 orientation 1 0 0 0 velocity 1.67248129177041 -0.693711763321949 -1.32408078993952 angularVelocity 0 0 0 force -464.958181174814 -4400.27640882596 -1803.00649860647 torque 0 0 0 radius 0.2 invMass 0.0298415518297304
BaseParticle id 61 indSpecies 0 position -0.233024722077359 0.452982199756983 1.74419007972577 orientation 1 0 0 0 velocity 1.19914771845072 0.401503458517948 2.57213904171495 angularVelocity 0 0 0 force 1394.43553440951 1085.66798360401 3375.91311753224 torque 0 0 0 radius 0.2 invMass 0.0298415518297304
BaseParticle id 62 indSpecies 0 position -0.577844588974972 0.750895665157569 0.437857798947678 orientation 1 0 0 0 velocity -1.36019450425756 -2.92396810356713 0.717379576777887 angularVelocity 0 0 0 force -1610.1144870892 -587.393581452111 -516.198116920692 torque 0 0 0 radius 0.2 invMass 0.0298415518297304
BaseParticle id 63 indSpecies 0 position -0.565023370262585 0.656596309404122 0.929420293145075 orientation 1 0 0 0 velocity -1.90082519718768 -1.56518946119215 -1.22996930219711 angularVelocity 0 0 0 force 1538.16965356476 -1322.98965582897 3592.93195311296 torque 0 0 0 radius 0.2 invMass 0.0298415518297304
BaseParticle id 64 indSpecies 0 position -0.197196032287835 0.693272430692351 1.48715668300359 orientation 1 0 0 0 velocity 0.0796011809727385 -1.01842642496639 -2.1698554777716 angularVelocity 0 0 0 force 1032.16281314697 -789.947779203609 -1899.02952274655 torque 0 0 0 radius 0.2 invMass 0.0298415518297304
BaseParticle id 65 indSpecies 0 position -0.292076253000977 0.691400917165592 2.15794605064345 orientation 1 0 0 0 velocity -0.528507704359786 -1.72467518501909 5.01817773622931 angularVelocity 0 0 0 force 0 -328.401152055253 0 torque 0 0 0 radius 0.2 invMass 0.0298415518297304
BaseParticle id 66 indSpecies 0 position -0.318704145415743 0.953012854402664 0.253383581596529 orientation 1 0 0 0 velocity -2.30111803475319 -0.961179330776269 1.33883560821644 angularVelocity 0 0 0 force -854.486862609409 28.4108213717886 424.472105665561 torque 0 0 0 radius 0.2 invMass 0.0298415518297304
BaseParticle id 67 indSpecies 0 position -0.196965451626186 0.955005384150057 0.789571385541715 orientation 1 0 0 0 velocity 0.522900876068951 -1.0306337693664 2.95544993679777 angularVelocity 0 0 0 force 1438.66616545189 -638.994646782382 742.548944811498 torque 0 0 0 radius 0.2 invMass 0.0298415518297304
BaseParticle id 68 indSpecies 0 position -0.271914450094371 0.837587827004403 1.13918893002533 orientation 1 0 0 0 velocity -0.564891994606112 -2.15669794704673 -1.03403154972923 angularVelocity 0 0 0 force -1905.0524211894 3442.84556765339 377.725897738178 torque 0 0 0 radius 0.2 invMass 0.0298415518297304
BaseParticle id 69 indSpecies 0 position -0.251466364819592 0.942797061714149 1.72024135569929 orientation 1 0 0 0 velocity -0.364399538523054 -2.70539467869226 0.797624756906531 angularVelocity 0 0 0 force -552.290054177995 397.412023985004 2179.78081068873 torque 0 0 0 radius 0.2 invMass 0.0298415518297304
BaseParticle id 70 indSpecies 0 position -0.266651368614101 1.27089310682911 0.317854059946724 orientation 1 0 0 0 velocity -0.112408111845095 -0.616183624685589 2.25518178886944 angularVelocity 0 0 0 force 405.24612660697 -849.991458087436 2151.67541427991 torque 0 0 0 radius 0.2 invMass 0.0298415518297304
BaseParticle id 71 indSpecies 0 position -0.302557977991226 1.26464782666324 0.809728038902659 orientation 1 0 0 0 velocity -2.09519207943385 -0.82483261426041 1.70821405604427 angularVelocity 0 0 0 force -2277.66931919835 -195.550203935044 1208.99327616653 torque 0 0 0 radius 0.2 invMass 0.0298415518297304
BaseParticle id 72 indSpecies 0 position -0.247525727908958 1.20998157955596 1.26363432430557 orientation 1 0 0 0 velocity 0.0366134963570077 -4.42308985456534 0.199726180507514 angularVelocity 0 0 0 force 42.7564572314001 324.45131939299 218.168222907962 torque 0 0 0 radius 0.2 invMass 0.0298415518297304
BaseParticle id 73 indSpecies 0 position -0.250479096974835 1.31610712898104 1.75605477211925 orientation 1 0 0 0 velocity -0.0136621969766928 -3.59011116239553 0.210802709443768 angularVelocity 0 0 0 force 3.35881108038077 442.65814684346 189.320946707528 torque 0 0 0 radius 0.2 invMass 0.0298415518297304
BaseParticle id 74 indSpecies 0 position -0.246189309456777 1.58311131999865 0.240096204780018 orientation 1 0 0 0 velocity 0.212675991269889 -1.31104141755814 -0.637911992687469 angularVelocity 0 0 0 force 361.589341357436 1604.87754322675 -1332.53998896689 torque 0 0 0 radius 0.2 invMass 0.0298415518297304
BaseParticle id 75 indSpecies 0 position -0.244335953014034 1.58513391616125 0.740518987176433 orientation 1 0 0 0 velocity 0.387223199505143 -1.61753874009992 -0.543260207638245 angularVelocity 0 0 0 force 825.755201162157 901.998538549346 -1006.7289566457 torque 0 0 0 radius 0.2 invMass 0.0298415518297304
BaseParticle id 76 indSpecies 0 position -0.250229717059145 1.6146977282363 1.24868994514958 orientation 1 0 0 0 velocity -0.00499919328947152 -4.31385039724268 -0.0282565889420796 angularVelocity 0 0 0 force -0.456283448161956 -1052.66011318239 -2.60972681415671 torque 0 0 0 radius 0.2 invMass 0.0298415518297304
BaseParticle id 77 indSpecies 0 position -0.249960527722398 1.69974709414462 1.74950246718484 orientation 1 0 0 0 velocity 0.00186565507267822 -3.20954147983023 -0.0232707906848509 angularVelocity 0 0 0 force 1.69798010177365 -2051.4996159542 -21.449444182891 torque 0 0 0 radius 0.2 invMass 0.0298415518297304
BaseParticle id 78 indSpecies 0 position -0.250199843732134 1.94256918217859 0.25046163955924 orientation 1 0 0 0 velocity -0.00863331256342444 -3.85871230006112 0.0210805796421738 angularVelocity 0 0 0 force -34.1701167647386 2734.21252467259 88.3144470051516 torque 0 0 0 radius 0.2 invMass 0.0298415518297304
BaseParticle id 79 indSpecies 0 position -0.250220046646614 1.94399260200716 0.750481298264541 orientation 1 0 0 0 velocity -0.0119505104888954 -3.74936239140602 0.0225310000940586 angularVelocity 0 0 0 force -49.8554377961862 2712.17875829022 84.4098363780975 torque 0 0 0 radius 0.2 invMass 0.0298415518297304
BaseParticle id 80 indSpecies 0 position -0.249985491482098 2.00235711720746 1.25008680063423 orientation 1 0 0 0 velocity 0.000580060165284309 -3.65875011483356 0.0033903218860495 angularVelocity 0 0 0 force 0.477783171434034 -149.389388923774 2.73868645388268 torque 0 0 0 radius 0.2 invMass 0.0298415518297304
BaseParticle id 81 indSpecies 0 position -0.250001903536826 2.05636572048428 1.75002459816145 orientation 1 0 0 0 velocity -0.000162968348425717 -2.24233707605747 0.00208211420848242 angularVelocity 0 0 0 force -0.331492323840782 -65.146750903251 4.18724706034038 torque 0 0 0 radius 0.2 invMass 0.0298415518297304
BaseParticle id 82 indSpecies 0 position -0.249983212913293 2.35326407152691 0.249961648254802 orientation 1 0 0 0 velocity 0.000352377353477184 -4.65694898216648 -0.000805041761716406 angularVelocity 0 0 0 force 0.0259739036404552 -900.566599852117 -0.0593399244694138 torque 0 0 0 radius 0.2 invMass 0.0298415518297304
BaseParticle id 83 indSpecies 0 position -0.2499831638169 2.35330096139745 0.749961535800162 orientation 1 0 0 0 velocity 0.000352857755759756 -4.65890986603427 -0.000806145375006767 angularVelocity 0 0 0 force 0.0256502950980349 -891.867632906886 -0.0586010494372572 torque 0 0 0 radius 0.2 invMass 0.0298415518297304
BaseParticle id 84 indSpecies 0 position -0.250000971762763 2.39494727055619 1.24999394681504 orientation 1 0 0 0 velocity -3.35944311639619e-05 -4.03310970281229 -0.00020790636711661 angularVelocity 0 0 0 force -0.0267312639238306 -1649.80715644323 -0.161555743781792 torque 0 0 0 radius 0.2 invMass 0.0298415518297304
BaseParticle id 85 indSpecies 0 position -0.249999971213757 2.42075915016956 1.74999961602391 orientation 1 0 0 0 velocity 3.42227183941241e-06 -3.01099117373674 -4.48601735426172e-05 angularVelocity 0 0 0 force 0.0133973400149918 -775.436866143444 -0.173310453709593 torque 0 0 0 radius 0.2 invMass 0.0298415518297304
BaseParticle id 86 indSpecies 0 position -0.250000830031008 2.74134228208547 0.250001896284094 orientation 1 0 0 0 velocity -4.82211208124773e-05 -3.17874791992041 0.000110165754871818 angularVelocity 0 0 0 force -0.0277682773087111 -601.157290912119 0.0634393402921469 torque 0 0 0 radius 0.2 invMass 0.0298415518297304
BaseParticle id 87 indSpecies 0 position -0.250000835674036 2.74150308977604 0.750001909190398 orientation 1 0 0 0 velocity -4.83816596958068e-05 -3.17804033778612 0.000110533348927779 angularVelocity 0 0 0 force -0.0274796139456961 -620.144398565256 0.0627803320621315 torque 0 0 0 radius 0.2 invMass 0.0298415518297304
BaseParticle id 88 indSpecies 0 position -0.249999941084451 2.76270107376302 1.25000036865131 orientation 1 0 0 0 velocity 4.35657979950398e-06 -2.16624827848816 2.72226465669955e-05 angularVelocity 0 0 0 force 0.00558866894230698 -706.38861052408 0.0348307617079935 torque 0 0 0 radius 0.2 invMass 0.0298415518297304
BaseParticle id 89 indSpecies 0 position -0.250000000579701 2.77371004141893 1.75000000801154 orientation 1 0 0 0 velocity -7.16904613035221e-08 -1.66483968391273 9.75918096519789e-07 angularVelocity 0 0 0 force -0.000248265686425899 -318.513176997558 0.00331615887930255 torque 0 0 0 radius 0.2 invMass 0.0298415518297304
BaseParticle id 90 indSpecies 0 position -0.249999999661259 3.13234073361555 0.249999999226114 orientation 1 0 0 0 velocity 1.654122245564e-07 -4.81028921082252 -3.77899796090573e-07 angularVelocity 0 0 0 force 0.00179437366825583 516.520434598477 -0.00409941582273318 torque 0 0 0 radius 0.2 invMass 0.0298415518297304