MercuryDPM 0.14 name CoilSelfTest revision 5000 repository https://svn.mercurydpm.org/SourceCode/MercuryLab
dataFile    fileType ONE_FILE saveCount 1 counter 501 lastSavedTimeStep 500
fStatFile   fileType ONE_FILE saveCount 1 counter 501 lastSavedTimeStep 500
eneFile     fileType ONE_FILE saveCount 1 counter 501 lastSavedTimeStep 500
restartFile fileType ONE_FILE saveCount 1 counter 501 lastSavedTimeStep 500
statFile    fileType ONE_FILE saveCount 1 counter 0
interactionFile fileType NO_FILE saveCount 0 counter 0
xMin -1 xMax 1 yMin -1 yMax 5 zMin 0 zMax 2
timeStep 0.001 time 0.5 ntimeSteps 500 timeMax 0.5
systemDimensions 3 particleDimensions 3 gravity 0 -9.8 0 writeVTK 0 NO_FILE NO_FILE 0 0 0 0 random  0 1103515245 12345 1073741824 607 273 784607267
Species 1
LinearViscoelasticSpecies id 0 density 1000 stiffness 66480.4397719024 dissipation 149.552243520995
Walls 7
InfiniteWall id 0 indSpecies 0 position -1 0 0 orientation 0 0 1 0 velocity 0 0 0 angularVelocity 0 0 0 force -14975.1813553638 0 0 torque 0 0 0
InfiniteWall id 1 indSpecies 0 position 1 0 0 orientation 1 0 0 0 velocity 0 0 0 angularVelocity 0 0 0 force 15262.9965985535 0 0 torque 0 0 0
InfiniteWall id 2 indSpecies 0 position 0 -1 0 orientation 0.707106781186548 0 0 -0.707106781186548 velocity 0 0 0 angularVelocity 0 0 0 force 0 -33310.4903326078 0 torque 0 0 0
InfiniteWall id 3 indSpecies 0 position 0 5 0 orientation 0.707106781186548 0 0 0.707106781186548 velocity 0 0 0 angularVelocity 0 0 0 force 0 0 0 torque 0 0 0
InfiniteWall id 4 indSpecies 0 position 0 0 0 orientation 0.707106781186548 0 0.707106781186548 0 velocity 0 0 0 angularVelocity 0 0 0 force 0 0 -6132.32089555558 torque 0 0 0
InfiniteWallWithHole id 5 indSpecies 0 position 0 0 0 orientation 1 0 0 0 velocity 0 0 0 angularVelocity 0 0 0 force 319.720960294997 -122.556349031073 0 torque 0 0 0 normal 0 0 1 factor 1 position 2 holeRadius 1
Coil id 6 indSpecies 0 position 0 0 0 orientation 1 0 0 0 velocity 0 0 0 angularVelocity 0 0 0 force 7567.47328043606 -22731.7272665613 -7716.72386911509 torque 0 0 0 Start 0 0 0 Length 1 Radius 0.8 Revolutions 2 Omega -1 Thickness 0.1 Offset 0
Boundaries 0
Particles 197
BaseParticle id 0 indSpecies 0 position -0.749136511929561 -0.84357157625707 1.25467612410261 orientation 1 0 0 0 velocity 0.0439145757329159 0.195128288391876 0.231877088479138 angularVelocity 0 0 0 force 64.3116273329093 -664.015245785833 327.632052502515 torque 0 0 0 radius 0.2 invMass 0.0298415518297304
BaseParticle id 1 indSpecies 0 position -0.750046712642641 -0.878274375728035 1.75060499943143 orientation 1 0 0 0 velocity -0.00298107180156874 0.654729100427016 0.0395421100662464 angularVelocity 0 0 0 force -4.86481329172043 839.232448223823 69.1780671610924 torque 0 0 0 radius 0.2 invMass 0.0298415518297304
BaseParticle id 2 indSpecies 0 position -0.75613371574569 -0.495231702198814 1.21902925365118 orientation 1 0 0 0 velocity -0.25002759969112 0.667453411724938 -1.19779085360881 angularVelocity 0 0 0 force -252.453272189627 564.475264923598 -1109.28825126392 torque 0 0 0 radius 0.2 invMass 0.0298415518297304
BaseParticle id 3 indSpecies 0 position -0.749627824005738 -0.539014271000028 1.74464836666486 orientation 1 0 0 0 velocity 0.0146337608560901 1.27802240375006 -0.259160736699498 angularVelocity 0 0 0 force 8.4919416021039 883.308598127163 -340.034984269056 torque 0 0 0 radius 0.2 invMass 0.0298415518297304
BaseParticle id 4 indSpecies 0 position -0.728318768406886 -0.153907753213441 1.33458966571283 orientation 1 0 0 0 velocity 0.670394424650703 0.372211078480742 1.87969275199227 angularVelocity 0 0 0 force 754.238191056843 -1855.2094469505 826.816119837023 torque 0 0 0 radius 0.2 invMass 0.0298415518297304
BaseParticle id 5 indSpecies 0 position -0.750101959530542 -0.182369249115919 1.7800545821473 orientation 1 0 0 0 velocity 0.0930674719565007 1.31142008941555 0.974322322252057 angularVelocity 0 0 0 force 220.730510252395 436.650352220976 695.76728963308 torque 0 0 0 radius 0.2 invMass 0.0298415518297304
BaseParticle id 6 indSpecies 0 position -0.778670966778939 0.187249368011474 1.33057285741444 orientation 1 0 0 0 velocity -0.734277723766981 -1.26157470266575 2.81381431547585 angularVelocity 0 0 0 force -81.7319758074149 -1970.13832315531 -293.626867527007 torque 0 0 0 radius 0.2 invMass 0.0298415518297304
BaseParticle id 7 indSpecies 0 position -0.790961312838634 0.175176902934993 1.70267115474766 orientation 1 0 0 0 velocity -1.38349238982249 1.64833253351862 0.208110632425593 angularVelocity 0 0 0 force -362.012705547991 -337.98875037372 1735.52006991207 torque 0 0 0 radius 0.2 invMass 0.0298415518297304
BaseParticle id 8 indSpecies 0 position -0.759525327575579 0.24083851920189 0.496609149427221 orientation 1 0 0 0 velocity 0.967429406036605 -3.12703370923188 -1.38431468226312 angularVelocity 0 0 0 force 220.037600515905 -1705.24366373062 -4987.42326506607 torque 0 0 0 radius 0.2 invMass 0.0298415518297304
BaseParticle id 9 indSpecies 0 position -0.807376122523471 0.285698880531238 0.972923439003603 orientation 1 0 0 0 velocity -1.0591179136644 -1.93664034353714 1.56808990260362 angularVelocity 0 0 0 force 58.8165401412355 150.575116085821 464.85436877452 torque 0 0 0 radius 0.2 invMass 0.0298415518297304
BaseParticle id 10 indSpecies 0 position -0.482799293253437 0.379019041103657 1.49171760184873 orientation 1 0 0 0 velocity 2.93112513424543 -0.507229817631188 -1.45549071603887 angularVelocity 0 0 0 force -3208.49959071434 1317.79474268694 335.313195348216 torque 0 0 0 radius 0.2 invMass 0.0298415518297304
BaseParticle id 11 indSpecies 0 position -0.623888750023858 0.264964812181964 2.18756760367066 orientation 1 0 0 0 velocity 2.33409928200594 -3.06303291295298 3.898298263769 angularVelocity 0 0 0 force 0 -328.401152055253 0 torque 0 0 0 radius 0.2 invMass 0.0298415518297304
BaseParticle id 12 indSpecies 0 position -0.841171290488733 0.528678145761043 0.180993591322695 orientation 1 0 0 0 velocity 1.24642205636443 -1.65015736578786 0.539910494582403 angularVelocity 0 0 0 force -3479.8790502409 1440.82544368228 238.712327760332 torque 0 0 0 radius 0.2 invMass 0.0298415518297304
BaseParticle id 13 indSpecies 0 position -0.866795459536998 0.570386707030401 0.657110297874453 orientation 1 0 0 0 velocity 2.0520527406014 -1.47512773770135 -1.850452357214 angularVelocity 0 0 0 force 329.221713963937 2395.52845986413 -579.844374070263 torque 0 0 0 radius 0.2 invMass 0.0298415518297304
BaseParticle id 14 indSpecies 0 position -0.828385675224997 0.507322438360887 1.29048974677644 orientation 1 0 0 0 velocity -1.10217382485076 -1.35349472497048 1.89435530390643 angularVelocity 0 0 0 force 733.978501723599 2721.87942517057 80.934499761006 torque 0 0 0 radius 0.2 invMass 0.0298415518297304
BaseParticle id 15 indSpecies 0 position -0.778075559842058 0.557954583942426 1.71680938843132 orientation 1 0 0 0 velocity -1.11999036085831 -3.64211181792999 0.310071881848857 angularVelocity 0 0 0 force -27.5684193537191 323.871555317081 -78.2626238547106 torque 0 0 0 radius 0.2 invMass 0.0298415518297304
BaseParticle id 16 indSpecies 0 position -0.865858621849685 0.900659134108148 0.18882200322804 orientation 1 0 0 0 velocity 2.12178867809658 -3.03430094509069 -1.20155774687773 angularVelocity 0 0 0 force 3124.66194465933 158.417027849368 702.642294522281 torque 0 0 0 radius 0.2 invMass 0.0298415518297304
BaseParticle id 17 indSpecies 0 position -0.823084839087716 0.906224143558297 0.854403599139494 orientation 1 0 0 0 velocity 0.041337463444381 -2.89197597190866 1.87136815285616 angularVelocity 0 0 0 force -492.295290711287 1314.87605039436 -78.9298424806694 torque 0 0 0 radius 0.2 invMass 0.0298415518297304
BaseParticle id 18 indSpecies 0 position -0.739500932247204 0.865989081313624 1.27543689420934 orientation 1 0 0 0 velocity 0.390424486868735 -3.34652492950917 0.423007208751042 angularVelocity 0 0 0 force 583.92115498224 207.495417614278 34.0173153002932 torque 0 0 0 radius 0.2 invMass 0.0298415518297304
BaseParticle id 19 indSpecies 0 position -0.750427675171016 0.934929650177632 1.76164550282401 orientation 1 0 0 0 velocity 0.0225901181451144 -3.55433500333255 0.325082413199839 angularVelocity 0 0 0 force 89.9742368064172 -261.828371926184 187.650536614857 torque 0 0 0 radius 0.2 invMass 0.0298415518297304
BaseParticle id 20 indSpecies 0 position -0.692751049067854 1.22737620208077 0.245301331446714 orientation 1 0 0 0 velocity 1.80078934092918 -3.27873997781046 0.056790919462779 angularVelocity 0 0 0 force 1027.50710675919 -91.8022870307896 242.373405937664 torque 0 0 0 radius 0.2 invMass 0.0298415518297304
BaseParticle id 21 indSpecies 0 position -0.697725034906779 1.24668897401524 0.716755179188389 orientation 1 0 0 0 velocity 1.36756711843539 -3.37921046579623 -0.960093820773715 angularVelocity 0 0 0 force 402.808875452777 -984.656310586408 -349.873385432919 torque 0 0 0 radius 0.2 invMass 0.0298415518297304
BaseParticle id 22 indSpecies 0 position -0.75070806066956 1.24019167496312 1.24671186902371 orientation 1 0 0 0 velocity -0.0316718166424583 -3.38954754035581 -0.115535722471947 angularVelocity 0 0 0 force -50.3784663413952 395.55177556502 -132.824333691404 torque 0 0 0 radius 0.2 invMass 0.0298415518297304
BaseParticle id 23 indSpecies 0 position -0.74991936480213 1.31701637221625 1.74897289423467 orientation 1 0 0 0 velocity 0.002886968134469 -3.60269913088578 -0.040353312083889 angularVelocity 0 0 0 force 1.82844533601707 -276.373230005989 -42.455348096071 torque 0 0 0 radius 0.2 invMass 0.0298415518297304
BaseParticle id 24 indSpecies 0 position -0.75575756212189 1.60074767140135 0.251594970387101 orientation 1 0 0 0 velocity -0.275152406468007 -2.93908884169353 0.0598414774698921 angularVelocity 0 0 0 force -272.958158582167 -2259.5359168953 37.1653864820123 torque 0 0 0 radius 0.2 invMass 0.0298415518297304
BaseParticle id 25 indSpecies 0 position -0.757656898859115 1.61967803064665 0.7542712973176 orientation 1 0 0 0 velocity -0.32191738305586 -3.00815842885377 0.185815525471805 angularVelocity 0 0 0 force -269.685592800195 -2310.61809049433 163.667557195214 torque 0 0 0 radius 0.2 invMass 0.0298415518297304
BaseParticle id 26 indSpecies 0 position -0.749959415914508 1.62774447608617 1.25022342386709 orientation 1 0 0 0 velocity 0.00141697339014935 -3.89873740891448 0.0075487212266087 angularVelocity 0 0 0 force 1.86961020182672 -596.295399122503 8.87669092566111 torque 0 0 0 radius 0.2 invMass 0.0298415518297304
BaseParticle id 27 indSpecies 0 position -0.750006076489965 1.69898707294621 1.750076530403 orientation 1 0 0 0 velocity -0.000297012166195032 -3.16728737419002 0.0037265272062852 angularVelocity 0 0 0 force -0.305504971196887 -1947.64774421176 3.88222497143365 torque 0 0 0 radius 0.2 invMass 0.0298415518297304
BaseParticle id 28 indSpecies 0 position -0.749758901108089 1.95198192406864 0.24991673986377 orientation 1 0 0 0 velocity 0.0225786946633067 -2.79398326449332 -0.00714609600458127 angularVelocity 0 0 0 force 56.2976918311794 977.370282637107 -15.8335723912321 torque 0 0 0 radius 0.2 invMass 0.0298415518297304
BaseParticle id 29 indSpecies 0 position -0.749558148003759 1.97046185746786 0.749766071745777 orientation 1 0 0 0 velocity 0.0362708513290386 -2.55946631247772 -0.0196865751520964 angularVelocity 0 0 0 force 76.5389041710896 713.681648010006 -42.5050252494625 torque 0 0 0 radius 0.2 invMass 0.0298415518297304
BaseParticle id 30 indSpecies 0 position -0.750002148420129 2.00920689375276 1.24998797654972 orientation 1 0 0 0 velocity -0.000105186841828159 -3.45842386824944 -0.000585314005337745 angularVelocity 0 0 0 force -0.135354054790909 64.8239249685021 -0.746175915199511 torque 0 0 0 radius 0.2 invMass 0.0298415518297304
BaseParticle id 31 indSpecies 0 position -0.749999709633151 2.05566486203963 1.74999629142981 orientation 1 0 0 0 velocity 2.47487954611862e-05 -2.26129337221888 -0.000313945350253573 angularVelocity 0 0 0 force 0.0510487038485693 -29.2243464514646 -0.643690946525134 torque 0 0 0 radius 0.2 invMass 0.0298415518297304
BaseParticle id 32 indSpecies 0 position -0.750003118444762 2.32322171994461 0.250001198960326 orientation 1 0 0 0 velocity -0.000357745631195983 -2.83919472464648 0.000131936013653818 angularVelocity 0 0 0 force -1.27324420174195 82.9178265323703 0.440809809858507 torque 0 0 0 radius 0.2 invMass 0.0298415518297304
BaseParticle id 33 indSpecies 0 position -0.750008071639425 2.3380627351702 0.750004006472944 orientation 1 0 0 0 velocity -0.000846934481435407 -2.6090040845945 0.000434337047245938 angularVelocity 0 0 0 force -2.69260347088581 -472.513578838752 1.42229505948458 torque 0 0 0 radius 0.2 invMass 0.0298415518297304
BaseParticle id 34 indSpecies 0 position -0.74999988175254 2.3985416778879 1.25000066788854 orientation 1 0 0 0 velocity 4.57130781132838e-06 -3.92206672168295 2.5769692873141e-05 angularVelocity 0 0 0 force 0.00519130063246736 -1542.26063192547 0.0291003943927194 torque 0 0 0 radius 0.2 invMass 0.0298415518297304
BaseParticle id 35 indSpecies 0 position -0.75000000455905 2.42051129248996 1.750000059552 orientation 1 0 0 0 velocity -5.24845023553695e-07 -3.02602481932582 6.76913540920175e-06 angularVelocity 0 0 0 force -0.00201865204629453 -792.24886313989 0.0258025903630471 torque 0 0 0 radius 0.2 invMass 0.0298415518297304
BaseParticle id 36 indSpecies 0 position -0.749999995529523 2.70463784386153 0.249999998245988 orientation 1 0 0 0 velocity 1.45549197676556e-06 -4.62802149942839 -5.66779210742096e-07 angularVelocity 0 0 0 force 0.0123259770039224 1177.02759392416 -0.00473915434223854 torque 0 0 0 radius 0.2 invMass 0.0298415518297304
BaseParticle id 37 indSpecies 0 position -0.749999967339283 2.70724414383872 0.749999984228408 orientation 1 0 0 0 velocity 7.8243564981533e-06 -4.270326056014 -3.82205878069542e-06 angularVelocity 0 0 0 force 0.0505501088597701 1974.34678046154 -0.0250885203680171 torque 0 0 0 radius 0.2 invMass 0.0298415518297304
BaseParticle id 38 indSpecies 0 position -0.750000007018265 2.76455224970321 1.2499999603102 orientation 1 0 0 0 velocity -5.29440777378943e-07 -2.09734234380391 -2.99301378405138e-06 angularVelocity 0 0 0 force -0.000725365193848572 -690.827648689938 -0.00409760693584142 torque 0 0 0 radius 0.2 invMass 0.0298415518297304
BaseParticle id 39 indSpecies 0 position -0.749999999901066 2.77365003010991 1.74999999867294 orientation 1 0 0 0 velocity 1.18146381207029e-08 -1.66960734094399 -1.56697220815511e-07 angularVelocity 0 0 0 force 3.9229545183303e-05 -328.385254477833 -0.000512998623992296 torque 0 0 0 radius 0.2 invMass 0.0298415518297304
BaseParticle id 40 indSpecies 0 position -0.75 3.13214285714285 0.25 orientation 1 0 0 0 velocity 0 -4.90000000000006 0 angularVelocity 0 0 0 force 0 -328.401152055253 0 torque 0 0 0 radius 0.2 invMass 0.0298415518297304
BaseParticle id 41 indSpecies 0 position -0.75 3.13214285714285 0.75 orientation 1 0 0 0 velocity 0 -4.90000000000006 0 angularVelocity 0 0 0 force 0 -328.401152055253 0 torque 0 0 0 radius 0.2 invMass 0.0298415518297304
BaseParticle id 42 indSpecies 0 position -0.749999999975898 3.13445533044012 1.25000000013633 orientation 1 0 0 0 velocity 6.53306812840044e-09 -4.39858170398971 3.69499868158386e-08 angularVelocity 0 0 0 force 4.47605792719546e-05 2022.66577111096 0.000253130862420739 torque 0 0 0 radius 0.2 invMass 0.0298415518297304
BaseParticle id 43 indSpecies 0 position -0.750000000000375 3.13564176743086 1.75000000000508 orientation 1 0 0 0 velocity -1.05307710097484e-10 -4.21195583599474 1.41964087803435e-09 angularVelocity 0 0 0 force -7.99298751003162e-07 2585.12008634589 1.0721805802276e-05 torque 0 0 0 radius 0.2 invMass 0.0298415518297304
BaseParticle id 44 indSpecies 0 position -0.75 3.56071428571428 0.25 orientation 1 0 0 0 velocity 0 -4.90000000000006 0 angularVelocity 0 0 0 force 0 -328.401152055253 0 torque 0 0 0 radius 0.2 invMass 0.0298415518297304
BaseParticle id 45 indSpecies 0 position -0.75 3.56071428571428 0.75 orientation 1 0 0 0 velocity 0 -4.90000000000006 0 angularVelocity 0 0 0 force 0 -328.401152055253 0 torque 0 0 0 radius 0.2 invMass 0.0298415518297304
BaseParticle id 46 indSpecies 0 position -0.75 3.56071428571428 1.25 orientation 1 0 0 0 velocity 0 -4.90000000000006 0 angularVelocity 0 0 0 force 0 -328.401152055253 0 torque 0 0 0 radius 0.2 invMass 0.0298415518297304
BaseParticle id 47 indSpecies 0 position -0.75 3.56071428571428 1.75 orientation 1 0 0 0 velocity 0 -4.90000000000006 0 angularVelocity 0 0 0 force 0 -328.401152055253 0 torque 0 0 0 radius 0.2 invMass 0.0298415518297304
BaseParticle id 48 indSpecies 0 position -0.250050596170469 -0.874364450130585 1.24969759152103 orientation 1 0 0 0 velocity -0.0035549109956002 0.694062119739468 -0.0199523572094233 angularVelocity 0 0 0 force -10.2485028753748 627.114736125821 -47.7056333395918 torque 0 0 0 radius 0.2 invMass 0.0298415518297304
BaseParticle id 49 indSpecies 0 position -0.249999502107857 -0.894586346044412 1.74999343381974 orientation 1 0 0 0 velocity 5.7189296614971e-05 -0.139669141403421 -0.000742731365327219 angularVelocity 0 0 0 force 0.195503782346668 170.385193238155 -2.50254525824068 torque 0 0 0 radius 0.2 invMass 0.0298415518297304
BaseParticle id 50 indSpecies 0 position -0.0348224024249878 -0.560029164197178 0.19747488395866 orientation 1 0 0 0 velocity 0.182101808388732 0.473633250448271 0.467113011738491 angularVelocity 0 0 0 force 50.0745721646529 -23.8117934036757 -121.373689903386 torque 0 0 0 radius 0.2 invMass 0.0298415518297304
BaseParticle id 51 indSpecies 0 position -0.15476470511104 -0.601762648803302 0.617001797200462 orientation 1 0 0 0 velocity 0.135232074887096 0.597444569446516 -0.344323250866572 angularVelocity 0 0 0 force 36.190743180197 -247.170227854209 -115.693012979025 torque 0 0 0 radius 0.2 invMass 0.0298415518297304
BaseParticle id 52 indSpecies 0 position -0.249152612195598 -0.533880997149943 1.253877606375 orientation 1 0 0 0 velocity 0.113109038310565 1.14264088109134 0.42123039860081 angularVelocity 0 0 0 force 439.054055613375 252.290844544539 1454.58994154845 torque 0 0 0 radius 0.2 invMass 0.0298415518297304
BaseParticle id 53 indSpecies 0 position -0.25001001371158 -0.582167979241919 1.75012798755439 orientation 1 0 0 0 velocity -0.000886184033457786 -0.0504009652682009 0.0111705186348982 angularVelocity 0 0 0 force -2.22803867988272 847.778853178015 27.700950148074 torque 0 0 0 radius 0.2 invMass 0.0298415518297304
BaseParticle id 54 indSpecies 0 position -0.417929092477946 -0.338065627607553 0.373968815249197 orientation 1 0 0 0 velocity 0.424038513250303 -0.286495436682293 0.979492997730369 angularVelocity 0 0 0 force 1342.94426547248 846.98930311154 467.802878917617 torque 0 0 0 radius 0.2 invMass 0.0298415518297304
BaseParticle id 55 indSpecies 0 position -0.354588392065461 -0.378437601065766 0.923000115070244 orientation 1 0 0 0 velocity -0.354300669426477 0.797367033865573 1.67386300895775 angularVelocity 0 0 0 force -680.155520166496 -267.283238248514 -2112.89388986782 torque 0 0 0 radius 0.2 invMass 0.0298415518297304
BaseParticle id 56 indSpecies 0 position -0.251993992704042 -0.175559604067164 1.23685123053269 orientation 1 0 0 0 velocity -0.0343813391015458 1.34334601654969 -0.407043383807207 angularVelocity 0 0 0 force 195.161041613128 456.227961097177 193.029240993075 torque 0 0 0 radius 0.2 invMass 0.0298415518297304
BaseParticle id 57 indSpecies 0 position -0.249865578713503 -0.252837423276668 1.74833735086411 orientation 1 0 0 0 velocity 0.00864911281348845 0.373937948117569 -0.104465637446027 angularVelocity 0 0 0 force 15.3492996511223 961.898280571955 -171.207360044864 torque 0 0 0 radius 0.2 invMass 0.0298415518297304
BaseParticle id 58 indSpecies 0 position -0.243891649056152 0.179085452945372 1.31082208767888 orientation 1 0 0 0 velocity 0.351726441006838 0.863563022104504 1.37982641119195 angularVelocity 0 0 0 force 1997.65942340719 -900.289094572224 -527.126575899872 torque 0 0 0 radius 0.2 invMass 0.0298415518297304
BaseParticle id 59 indSpecies 0 position -0.251253108818013 0.0956031137030054 1.76355064212175 orientation 1 0 0 0 velocity -0.0685584897238975 0.725041372318922 0.497822405698686 angularVelocity 0 0 0 force -157.007044048819 198.60390123399 298.623920898875 torque 0 0 0 radius 0.2 invMass 0.0298415518297304
BaseParticle id 60 indSpecies 0 position -0.187528313815216 0.517939539214528 1.15015328290912 orientation 1 0 0 0 velocity 1.67248129177041 -0.693711763321951 -1.32408078993952 angularVelocity 0 0 0 force -464.958181174813 -4400.27640882596 -1803.00649860647 torque 0 0 0 radius 0.2 invMass 0.0298415518297304
BaseParticle id 61 indSpecies 0 position -0.233024722077359 0.452982199756983 1.74419007972577 orientation 1 0 0 0 velocity 1.19914771845073 0.401503458517947 2.57213904171495 angularVelocity 0 0 0 force 1394.43553440951 1085.667983604 3375.91311753224 torque 0 0 0 radius 0.2 invMass 0.0298415518297304
BaseParticle id 62 indSpecies 0 position -0.577844588974971 0.750895665157569 0.437857798947678 orientation 1 0 0 0 velocity -1.36019450425755 -2.92396810356713 0.717379576777886 angularVelocity 0 0 0 force -1610.11448708917 -587.393581452108 -516.198116920686 torque 0 0 0 radius 0.2 invMass 0.0298415518297304
BaseParticle id 63 indSpecies 0 position -0.565023370262586 0.656596309404123 0.929420293145075 orientation 1 0 0 0 velocity -1.90082519718769 -1.56518946119215 -1.2299693021971 angularVelocity 0 0 0 force 1538.16965356477 -1322.98965582898 3592.93195311295 torque 0 0 0 radius 0.2 invMass 0.0298415518297304
BaseParticle id 64 indSpecies 0 position -0.197196032287835 0.693272430692351 1.48715668300359 orientation 1 0 0 0 velocity 0.0796011809727374 -1.01842642496639 -2.1698554777716 angularVelocity 0 0 0 force 1032.16281314697 -789.947779203607 -1899.02952274655 torque 0 0 0 radius 0.2 invMass 0.0298415518297304
BaseParticle id 65 indSpecies 0 position -0.292076253000977 0.691400917165592 2.15794605064345 orientation 1 0 0 0 velocity -0.528507704359786 -1.72467518501909 5.01817773622931 angularVelocity 0 0 0 force 0 -328.401152055253 0 torque 0 0 0 radius 0.2 invMass 0.0298415518297304
BaseParticle id 66 indSpecies 0 position -0.318704145415743 0.953012854402665 0.253383581596528 orientation 1 0 0 0 velocity -2.30111803475319 -0.961179330776265 1.33883560821644 angularVelocity 0 0 0 force -854.486862609426 28.41082137178 424.472105665559 torque 0 0 0 radius 0.2 invMass 0.0298415518297304
BaseParticle id 67 indSpecies 0 position -0.196965451626186 0.955005384150057 0.789571385541715 orientation 1 0 0 0 velocity 0.522900876068954 -1.0306337693664 2.95544993679777 angularVelocity 0 0 0 force 1438.6661654519 -638.994646782376 742.54894481149 torque 0 0 0 radius 0.2 invMass 0.0298415518297304
BaseParticle id 68 indSpecies 0 position -0.271914450094371 0.837587827004403 1.13918893002533 orientation 1 0 0 0 velocity -0.56489199460611 -2.15669794704673 -1.03403154972922 angularVelocity 0 0 0 force -1905.05242118941 3442.84556765339 377.725897738185 torque 0 0 0 radius 0.2 invMass 0.0298415518297304
BaseParticle id 69 indSpecies 0 position -0.251466364819592 0.942797061714149 1.72024135569929 orientation 1 0 0 0 velocity -0.364399538523054 -2.70539467869226 0.797624756906531 angularVelocity 0 0 0 force -552.290054177995 397.412023985004 2179.78081068873 torque 0 0 0 radius 0.2 invMass 0.0298415518297304
BaseParticle id 70 indSpecies 0 position -0.266651368614101 1.27089310682911 0.317854059946724 orientation 1 0 0 0 velocity -0.112408111845098 -0.616183624685591 2.25518178886944 angularVelocity 0 0 0 force 405.24612660697 -849.991458087411 2151.67541427992 torque 0 0 0 radius 0.2 invMass 0.0298415518297304
BaseParticle id 71 indSpecies 0 position -0.302557977991226 1.26464782666324 0.809728038902659 orientation 1 0 0 0 velocity -2.09519207943385 -0.824832614260408 1.70821405604427 angularVelocity 0 0 0 force -2277.66931919835 -195.550203935066 1208.99327616653 torque 0 0 0 radius 0.2 invMass 0.0298415518297304
BaseParticle id 72 indSpecies 0 position -0.247525727908958 1.20998157955596 1.26363432430557 orientation 1 0 0 0 velocity 0.0366134963570077 -4.42308985456534 0.199726180507514 angularVelocity 0 0 0 force 42.7564572314 324.451319392991 218.168222907962 torque 0 0 0 radius 0.2 invMass 0.0298415518297304
BaseParticle id 73 indSpecies 0 position -0.250479096974835 1.31610712898104 1.75605477211925 orientation 1 0 0 0 velocity -0.0136621969766928 -3.59011116239553 0.210802709443768 angularVelocity 0 0 0 force 3.35881108038077 442.65814684346 189.320946707528 torque 0 0 0 radius 0.2 invMass 0.0298415518297304
BaseParticle id 74 indSpecies 0 position -0.246189309456777 1.58311131999865 0.240096204780018 orientation 1 0 0 0 velocity 0.21267599126989 -1.31104141755814 -0.637911992687471 angularVelocity 0 0 0 force 361.589341357435 1604.87754322674 -1332.53998896689 torque 0 0 0 radius 0.2 invMass 0.0298415518297304
BaseParticle id 75 indSpecies 0 position -0.244335953014034 1.58513391616125 0.740518987176433 orientation 1 0 0 0 velocity 0.387223199505143 -1.61753874009991 -0.543260207638245 angularVelocity 0 0 0 force 825.75520116216 901.998538549361 -1006.7289566457 torque 0 0 0 radius 0.2 invMass 0.0298415518297304
BaseParticle id 76 indSpecies 0 position -0.250229717059145 1.6146977282363 1.24868994514958 orientation 1 0 0 0 velocity -0.00499919328947152 -4.31385039724268 -0.0282565889420796 angularVelocity 0 0 0 force -0.456283448161956 -1052.66011318239 -2.60972681415671 torque 0 0 0 radius 0.2 invMass 0.0298415518297304
BaseParticle id 77 indSpecies 0 position -0.249960527722398 1.69974709414462 1.74950246718484 orientation 1 0 0 0 velocity 0.00186565507267822 -3.20954147983023 -0.0232707906848509 angularVelocity 0 0 0 force 1.69798010177365 -2051.4996159542 -21.449444182891 torque 0 0 0 radius 0.2 invMass 0.0298415518297304
BaseParticle id 78 indSpecies 0 position -0.250199843732134 1.94256918217859 0.25046163955924 orientation 1 0 0 0 velocity -0.00863331256342444 -3.85871230006112 0.0210805796421738 angularVelocity 0 0 0 force -34.1701167647387 2734.21252467259 88.3144470051518 torque 0 0 0 radius 0.2 invMass 0.0298415518297304
BaseParticle id 79 indSpecies 0 position -0.250220046646614 1.94399260200716 0.750481298264541 orientation 1 0 0 0 velocity -0.0119505104888954 -3.74936239140602 0.0225310000940586 angularVelocity 0 0 0 force -49.8554377961862 2712.17875829022 84.4098363780975 torque 0 0 0 radius 0.2 invMass 0.0298415518297304
BaseParticle id 80 indSpecies 0 position -0.249985491482098 2.00235711720746 1.25008680063423 orientation 1 0 0 0 velocity 0.000580060165284309 -3.65875011483356 0.0033903218860495 angularVelocity 0 0 0 force 0.477783171434034 -149.389388923774 2.73868645388268 torque 0 0 0 radius 0.2 invMass 0.0298415518297304
BaseParticle id 81 indSpecies 0 position -0.250001903536826 2.05636572048428 1.75002459816145 orientation 1 0 0 0 velocity -0.000162968348425717 -2.24233707605747 0.00208211420848242 angularVelocity 0 0 0 force -0.331492323840782 -65.146750903251 4.18724706034038 torque 0 0 0 radius 0.2 invMass 0.0298415518297304
BaseParticle id 82 indSpecies 0 position -0.249983212913293 2.35326407152691 0.249961648254802 orientation 1 0 0 0 velocity 0.000352377353477184 -4.65694898216648 -0.000805041761716406 angularVelocity 0 0 0 force 0.0259739036404552 -900.566599852117 -0.0593399244694138 torque 0 0 0 radius 0.2 invMass 0.0298415518297304
BaseParticle id 83 indSpecies 0 position -0.2499831638169 2.35330096139745 0.749961535800162 orientation 1 0 0 0 velocity 0.000352857755759756 -4.65890986603427 -0.000806145375006767 angularVelocity 0 0 0 force 0.0256502950980349 -891.867632906886 -0.0586010494372572 torque 0 0 0 radius 0.2 invMass 0.0298415518297304
BaseParticle id 84 indSpecies 0 position -0.250000971762763 2.39494727055619 1.24999394681504 orientation 1 0 0 0 velocity -3.35944311639619e-05 -4.03310970281229 -0.00020790636711661 angularVelocity 0 0 0 force -0.0267312639238306 -1649.80715644323 -0.161555743781792 torque 0 0 0 radius 0.2 invMass 0.0298415518297304
BaseParticle id 85 indSpecies 0 position -0.249999971213757 2.42075915016956 1.74999961602391 orientation 1 0 0 0 velocity 3.42227183941241e-06 -3.01099117373674 -4.48601735426172e-05 angularVelocity 0 0 0 force 0.0133973400149918 -775.436866143444 -0.173310453709593 torque 0 0 0 radius 0.2 invMass 0.0298415518297304
BaseParticle id 86 indSpecies 0 position -0.250000830031008 2.74134228208547 0.250001896284094 orientation 1 0 0 0 velocity -4.82211208124773e-05 -3.17874791992041 0.000110165754871818 angularVelocity 0 0 0 force -0.0277682773087111 -601.157290912119 0.0634393402921469 torque 0 0 0 radius 0.2 invMass 0.0298415518297304
BaseParticle id 87 indSpecies 0 position -0.250000835674036 2.74150308977604 0.750001909190398 orientation 1 0 0 0 velocity -4.83816596958068e-05 -3.17804033778612 0.000110533348927779 angularVelocity 0 0 0 force -0.0274796139456961 -620.144398565256 0.0627803320621315 torque 0 0 0 radius 0.2 invMass 0.0298415518297304
BaseParticle id 88 indSpecies 0 position -0.249999941084451 2.76270107376302 1.25000036865131 orientation 1 0 0 0 velocity 4.35657979950398e-06 -2.16624827848816 2.72226465669955e-05 angularVelocity 0 0 0 force 0.00558866894230698 -706.38861052408 0.0348307617079935 torque 0 0 0 radius 0.2 invMass 0.0298415518297304
BaseParticle id 89 indSpecies 0 position -0.250000000579701 2.77371004141893 1.75000000801154 orientation 1 0 0 0 velocity -7.16904613035221e-08 -1.66483968391273 9.75918096519789e-07 angularVelocity 0 0 0 force -0.000248265686425899 -318.513176997558 0.00331615887930255 torque 0 0 0 radius 0.2 invMass 0.0298415518297304
BaseParticle id 90 indSpecies 0 position -0.249999999661259 3.13234073361555 0.249999999226114 orientation 1 0 0 0 velocity 1.654122245564e-07 -4.81028921082252 -3.77899796090573e-07 angularVelocity 0 0 0 force 0.00179437366825583 516.520434598477 -0.00409941582273318 torque 0 0 0 radius 0.2 invMass 0.0298415518297304