MercuryDPM 1.0 name MembraneSelfTest revision 8640075d repository https://bitbucket.org/mercurydpm/mercurydpm.git
dataFile    fileType NO_FILE saveCount 99999 counter 0
fStatFile   fileType NO_FILE saveCount 99999 counter 0
eneFile     fileType NO_FILE saveCount 99999 counter 0
restartFile fileType ONE_FILE saveCount 99999 counter 2 lastSavedTimeStep 20000
statFile    fileType ONE_FILE saveCount 99999 counter 0
interactionFile fileType NO_FILE saveCount 0 counter 0
xMin -1 xMax 1 yMin -1 yMax 1 zMin -1 zMax 1
timeStep 1e-05 time 0.200000000000059 ntimeSteps 20000 timeMax 0.2
systemDimensions 3 particleDimensions 3 gravity 0 0 -9.81 backgroundDrag 0 writeVTK 0 NO_FILE NO_FILE 0 0 0 0 0 random  0 1103515245 12345 1073741824 607 273 784607267
Species 3
HertzianViscoelasticMindlinSpecies id 0 density 2000 elasticModulus 10000000 dissipation 1.32186284081552 slidingDissipation 1.32186284081552 slidingFrictionCoefficient 0.5 slidingFrictionCoefficientStatic 0.5 shearModulus 6225000
HertzianViscoelasticMindlinSpecies id 1 density 2000 elasticModulus 1250000 dissipation 0.293194957100995 slidingDissipation 0.293194957100995 slidingFrictionCoefficient 1.2 slidingFrictionCoefficientStatic 1.2 shearModulus 833333.333333333
HertzianViscoelasticMindlinMixedSpecies idA 1 idB 0 elasticModulus 2222222.22222222 dissipation 0.479937646078397 slidingDissipation 0.479937646078397 slidingFrictionCoefficient 0.705882352941176 slidingFrictionCoefficientStatic 0.705882352941176 shearModulus 1469893.74262102
HertzianViscoelasticMindlinSpecies id 2 density 80761.0310104446 elasticModulus 1250000 dissipation 0.293194957100995 slidingDissipation 0.293194957100995 slidingFrictionCoefficient 1.2 slidingFrictionCoefficientStatic 1.2 shearModulus 833333.333333333
HertzianViscoelasticMindlinMixedSpecies idA 2 idB 0 elasticModulus 0 dissipation 0.479937646078397 slidingDissipation 0.479937646078397 slidingFrictionCoefficient 0 slidingFrictionCoefficientStatic 0 shearModulus 1469893.74262102
HertzianViscoelasticMindlinMixedSpecies idA 2 idB 1 elasticModulus 1250000 dissipation 0.293194957100995 slidingDissipation 0.293194957100995 slidingFrictionCoefficient 1.2 slidingFrictionCoefficientStatic 1.2 shearModulus 833333.333333333
Walls 36
MeshTriangle id 0 indSpecies 1 position -0.0199983486933919 -0.0462221966042754 -0.000861285863798328 orientation 1 0 0 0 velocity 0 0 0 angularVelocity 0 0 0 force 0 0 0 torque 0 0 0 vertexNeighbors 3 vertexNeighborsElements 0 vertexNeighborsElements 2 1 2 vertexNeighborsElements 3 1 6 7 vertex  -0.03 -0.0519615 0 -0.01 -0.0519615 0 -0.0199950460801756 -0.0347435898128262 -0.00258385759139498 edgeParticleIds  0 1 2 invMass 9622.50897298962 isActive 1
MeshTriangle id 1 indSpecies 1 position -0.0100029548792464 -0.0404830994540921 -0.00173760800372412 orientation 1 0 0 0 velocity 0 0 0 angularVelocity 0 0 0 force 0 0 0 torque 0 0 0 vertexNeighbors 3 vertexNeighborsElements 2 0 2 vertexNeighborsElements 5 2 3 7 8 9 vertexNeighborsElements 3 0 6 7 vertex  -0.01 -0.0519615 0 -1.38185575636133e-05 -0.0347442085494502 -0.00262896641977737 -0.0199950460801756 -0.0347435898128262 -0.00258385759139498 edgeParticleIds  1 3 2 invMass 9622.50897298962 isActive 1
MeshTriangle id 2 indSpecies 1 position -4.60618585453778e-06 -0.0462224028498167 -0.000876322139925789 orientation 1 0 0 0 velocity 0 0 0 angularVelocity 0 0 0 force 0 0 0 torque 0 0 0 vertexNeighbors 3 vertexNeighborsElements 2 0 1 vertexNeighborsElements 2 3 4 vertexNeighborsElements 5 1 3 7 8 9 vertex  -0.01 -0.0519615 0 0.01 -0.0519615 0 -1.38185575636133e-05 -0.0347442085494502 -0.00262896641977737 edgeParticleIds  1 4 3 invMass 9622.50897298962 isActive 1
MeshTriangle id 3 indSpecies 1 position 0.00998050520329003 -0.0404812696561749 -0.00174370393911262 orientation 1 0 0 0 velocity 0 0 0 angularVelocity 0 0 0 force 0 0 0 torque 0 0 0 vertexNeighbors 3 vertexNeighborsElements 2 2 4 vertexNeighborsElements 5 4 5 9 10 11 vertexNeighborsElements 5 1 2 7 8 9 vertex  0.01 -0.0519615 0 0.0199553341674337 -0.0347381004190744 -0.00260214539756051 -1.38185575636133e-05 -0.0347442085494502 -0.00262896641977737 edgeParticleIds  4 5 3 invMass 9622.50897298962 isActive 1
MeshTriangle id 4 indSpecies 1 position 0.0199851113891446 -0.0462203668063582 -0.000867381799186835 orientation 1 0 0 0 velocity 0 0 0 angularVelocity 0 0 0 force 0 0 0 torque 0 0 0 vertexNeighbors 3 vertexNeighborsElements 2 2 3 vertexNeighborsElements 1 5 vertexNeighborsElements 5 3 5 9 10 11 vertex  0.01 -0.0519615 0 0.03 -0.0519615 0 0.0199553341674337 -0.0347381004190744 -0.00260214539756051 edgeParticleIds  4 6 5 invMass 9622.50897298962 isActive 1
MeshTriangle id 5 indSpecies 1 position 0.0299523292365688 -0.0404650374945693 -0.00168385219566435 orientation 1 0 0 0 velocity 0 0 0 angularVelocity 0 0 0 force 0 0 0 torque 0 0 0 vertexNeighbors 3 vertexNeighborsElements 1 4 vertexNeighborsElements 1 11 vertexNeighborsElements 5 3 4 9 10 11 vertex  0.03 -0.0519615 0 0.0399016535422728 -0.0346955120646334 -0.00244941118943254 0.0199553341674337 -0.0347381004190744 -0.00260214539756051 edgeParticleIds  6 7 5 invMass 9622.50897298962 isActive 1
MeshTriangle id 6 indSpecies 1 position -0.0199697881543755 -0.0231827740255947 -0.00372780472910173 orientation 1 0 0 0 velocity 0 0 0 angularVelocity 0 0 0 force 0 0 0 torque 0 0 0 vertexNeighbors 3 vertexNeighborsElements 5 7 8 12 13 14 vertexNeighborsElements 1 12 vertexNeighborsElements 3 0 1 7 vertex  -0.00998666318723921 -0.0174174693903748 -0.00448139088823552 -0.0299276551957117 -0.017387262873583 -0.00411816570767468 -0.0199950460801756 -0.0347435898128262 -0.00258385759139498 edgeParticleIds  8 9 2 invMass 9622.50897298962 isActive 1
MeshTriangle id 7 indSpecies 1 position -0.00999850927499281 -0.0289684225842171 -0.00323140496646929 orientation 1 0 0 0 velocity 0 0 0 angularVelocity 0 0 0 force 0 0 0 torque 0 0 0 vertexNeighbors 3 vertexNeighborsElements 5 6 8 12 13 14 vertexNeighborsElements 3 0 1 6 vertexNeighborsElements 5 1 2 3 8 9 vertex  -0.00998666318723921 -0.0174174693903748 -0.00448139088823552 -0.0199950460801756 -0.0347435898128262 -0.00258385759139498 -1.38185575636133e-05 -0.0347442085494502 -0.00262896641977737 edgeParticleIds  8 2 3 invMass 9622.50897298962 isActive 1
MeshTriangle id 8 indSpecies 1 position -9.72354370125482e-06 -0.0231939853731562 -0.00388797147666083 orientation 1 0 0 0 velocity 0 0 0 angularVelocity 0 0 0 force 0 0 0 torque 0 0 0 vertexNeighbors 3 vertexNeighborsElements 5 9 10 14 15 16 vertexNeighborsElements 5 6 7 12 13 14 vertexNeighborsElements 5 1 2 3 7 9 vertex  0.00997131111369906 -0.0174202781796435 -0.00455355712196959 -0.00998666318723921 -0.0174174693903748 -0.00448139088823552 -1.38185575636133e-05 -0.0347442085494502 -0.00262896641977737 edgeParticleIds  10 8 3 invMass 9622.50897298962 isActive 1
MeshTriangle id 9 indSpecies 1 position 0.00997094224118972 -0.0289675290493894 -0.00326155631310249 orientation 1 0 0 0 velocity 0 0 0 angularVelocity 0 0 0 force 0 0 0 torque 0 0 0 vertexNeighbors 3 vertexNeighborsElements 5 8 10 14 15 16 vertexNeighborsElements 5 1 2 3 7 8 vertexNeighborsElements 5 3 4 5 10 11 vertex  0.00997131111369906 -0.0174202781796435 -0.00455355712196959 -1.38185575636133e-05 -0.0347442085494502 -0.00262896641977737 0.0199553341674337 -0.0347381004190744 -0.00260214539756051 edgeParticleIds  10 3 5 invMass 9622.50897298962 isActive 1
MeshTriangle id 10 indSpecies 1 position 0.0199548635843169 -0.0231890372686483 -0.00386939515399382 orientation 1 0 0 0 velocity 0 0 0 angularVelocity 0 0 0 force 0 0 0 torque 0 0 0 vertexNeighbors 3 vertexNeighborsElements 3 11 16 17 vertexNeighborsElements 5 8 9 14 15 16 vertexNeighborsElements 5 3 4 5 9 11 vertex  0.029937945471818 -0.0174087332072271 -0.00445248294245136 0.00997131111369906 -0.0174202781796435 -0.00455355712196959 0.0199553341674337 -0.0347381004190744 -0.00260214539756051 edgeParticleIds  11 10 5 invMass 9622.50897298962 isActive 1
MeshTriangle id 11 indSpecies 1 position 0.0299316443938415 -0.028947448563645 -0.00316801317648147 orientation 1 0 0 0 velocity 0 0 0 angularVelocity 0 0 0 force 0 0 0 torque 0 0 0 vertexNeighbors 3 vertexNeighborsElements 3 10 16 17 vertexNeighborsElements 5 3 4 5 9 10 vertexNeighborsElements 1 5 vertex  0.029937945471818 -0.0174087332072271 -0.00445248294245136 0.0199553341674337 -0.0347381004190744 -0.00260214539756051 0.0399016535422728 -0.0346955120646334 -0.00244941118943254 edgeParticleIds  11 5 7 invMass 9622.50897298962 isActive 1
MeshTriangle id 12 indSpecies 1 position -0.0199651654364923 -0.0116019906333473 -0.00457660541177436 orientation 1 0 0 0 velocity 0 0 0 angularVelocity 0 0 0 force 0 0 0 torque 0 0 0 vertexNeighbors 3 vertexNeighborsElements 1 6 vertexNeighborsElements 5 6 7 8 13 14 vertexNeighborsElements 3 13 18 19 vertex  -0.0299276551957117 -0.017387262873583 -0.00411816570767468 -0.00998666318723921 -0.0174174693903748 -0.00448139088823552 -0.0199811779265258 -1.23963608400503e-06 -0.00513025963941287 edgeParticleIds  9 8 12 invMass 9622.50897298962 isActive 1
MeshTriangle id 13 indSpecies 1 position -0.0099947937249591 -0.00580688061174157 -0.00497281349638563 orientation 1 0 0 0 velocity 0 0 0 angularVelocity 0 0 0 force 0 0 0 torque 0 0 0 vertexNeighbors 3 vertexNeighborsElements 5 6 7 8 12 14 vertexNeighborsElements 5 14 15 19 20 21 vertexNeighborsElements 3 12 18 19 vertex  -0.00998666318723921 -0.0174174693903748 -0.00448139088823552 -1.6540061112258e-05 -1.93280876585988e-06 -0.00530678996150851 -0.0199811779265258 -1.23963608400503e-06 -0.00513025963941287 edgeParticleIds  8 13 12 invMass 9622.50897298962 isActive 1
MeshTriangle id 14 indSpecies 1 position -1.06307115508031e-05 -0.0116132267929281 -0.00478057932390454 orientation 1 0 0 0 velocity 0 0 0 angularVelocity 0 0 0 force 0 0 0 torque 0 0 0 vertexNeighbors 3 vertexNeighborsElements 5 6 7 8 12 13 vertexNeighborsElements 5 8 9 10 15 16 vertexNeighborsElements 5 13 15 19 20 21 vertex  -0.00998666318723921 -0.0174174693903748 -0.00448139088823552 0.00997131111369906 -0.0174202781796435 -0.00455355712196959 -1.6540061112258e-05 -1.93280876585988e-06 -0.00530678996150851 edgeParticleIds  8 10 13 invMass 9622.50897298962 isActive 1
MeshTriangle id 15 indSpecies 1 position 0.00996496387239809 -0.00580803134221156 -0.00500404673189551 orientation 1 0 0 0 velocity 0 0 0 angularVelocity 0 0 0 force 4.59462011521887e-05 -0.000263492391918204 -0.00940611805049765 torque -2.8543108505399e-05 -7.41741661204186e-05 1.93840657185297e-06 vertexNeighbors 3 vertexNeighborsElements 5 8 9 10 14 16 vertexNeighborsElements 5 16 17 21 22 23 vertexNeighborsElements 5 13 14 19 20 21 vertex  0.00997131111369906 -0.0174202781796435 -0.00455355712196959 0.0199401205646075 -1.88303822532877e-06 -0.00515179311220842 -1.6540061112258e-05 -1.93280876585988e-06 -0.00530678996150851 edgeParticleIds  10 14 13 invMass 9622.50897298962 isActive 1
MeshTriangle id 16 indSpecies 1 position 0.0199497923833748 -0.0116102981416986 -0.00471927772554313 orientation 1 0 0 0 velocity 0 0 0 angularVelocity 0 0 0 force 0 0 0 torque 0 0 0 vertexNeighbors 3 vertexNeighborsElements 5 8 9 10 14 15 vertexNeighborsElements 3 10 11 17 vertexNeighborsElements 5 15 17 21 22 23 vertex  0.00997131111369906 -0.0174202781796435 -0.00455355712196959 0.029937945471818 -0.0174087332072271 -0.00445248294245136 0.0199401205646075 -1.88303822532877e-06 -0.00515179311220842 edgeParticleIds  10 11 14 invMass 9622.50897298962 isActive 1
MeshTriangle id 17 indSpecies 1 position 0.0299211324794998 -0.00580418315355327 -0.00478219517570105 orientation 1 0 0 0 velocity 0 0 0 angularVelocity 0 0 0 force 0 0 0 torque 0 0 0 vertexNeighbors 3 vertexNeighborsElements 3 10 11 16 vertexNeighborsElements 1 23 vertexNeighborsElements 5 15 16 21 22 23 vertex  0.029937945471818 -0.0174087332072271 -0.00445248294245136 0.039885331402074 -1.93321520742779e-06 -0.00474230947244337 0.0199401205646075 -1.88303822532877e-06 -0.00515179311220842 edgeParticleIds  11 15 14 invMass 9622.50897298962 isActive 1
MeshTriangle id 18 indSpecies 1 position -0.0199649054313881 0.0115990388676937 -0.00456602244868085 orientation 1 0 0 0 velocity 0 0 0 angularVelocity 0 0 0 force 0 0 0 torque 0 0 0 vertexNeighbors 3 vertexNeighborsElements 5 19 20 24 25 26 vertexNeighborsElements 1 24 vertexNeighborsElements 3 12 13 19 vertex  -0.00998624357907943 0.0174135665339929 -0.00445770287752988 -0.029927294788559 0.0173847897051723 -0.00411010482909981 -0.0199811779265258 -1.23963608400503e-06 -0.00513025963941287 edgeParticleIds  16 17 12 invMass 9622.50897298962 isActive 1
MeshTriangle id 19 indSpecies 1 position -0.00999465385557251 0.00580346469638103 -0.00496491749281709 orientation 1 0 0 0 velocity 0 0 0 angularVelocity 0 0 0 force 0 0 0 torque 0 0 0 vertexNeighbors 3 vertexNeighborsElements 5 18 20 24 25 26 vertexNeighborsElements 3 12 13 18 vertexNeighborsElements 5 13 14 15 20 21 vertex  -0.00998624357907943 0.0174135665339929 -0.00445770287752988 -0.0199811779265258 -1.23963608400503e-06 -0.00513025963941287 -1.6540061112258e-05 -1.93280876585988e-06 -0.00530678996150851 edgeParticleIds  16 12 13 invMass 9622.50897298962 isActive 1
MeshTriangle id 20 indSpecies 1 position -1.04858215589463e-05 0.0116087107668261 -0.00475743356386873 orientation 1 0 0 0 velocity 0 0 0 angularVelocity 0 0 0 force 0 0 0 torque 0 0 0 vertexNeighbors 3 vertexNeighborsElements 5 21 22 26 27 28 vertexNeighborsElements 5 18 19 24 25 26 vertexNeighborsElements 5 13 14 15 19 21 vertex  0.00997132617551484 0.0174144985752513 -0.00450780785256778 -0.00998624357907943 0.0174135665339929 -0.00445770287752988 -1.6540061112258e-05 -1.93280876585988e-06 -0.00530678996150851 edgeParticleIds  18 16 13 invMass 9622.50897298962 isActive 1
MeshTriangle id 21 indSpecies 1 position 0.00996496889300335 0.00580356090942004 -0.00498879697542824 orientation 1 0 0 0 velocity 0 0 0 angularVelocity 0 0 0 force 0 0 0 torque 0 0 0 vertexNeighbors 3 vertexNeighborsElements 5 20 22 26 27 28 vertexNeighborsElements 5 13 14 15 19 20 vertexNeighborsElements 5 15 16 17 22 23 vertex  0.00997132617551484 0.0174144985752513 -0.00450780785256778 -1.6540061112258e-05 -1.93280876585988e-06 -0.00530678996150851 0.0199401205646075 -1.88303822532877e-06 -0.00515179311220842 edgeParticleIds  18 13 14 invMass 9622.50897298962 isActive 1
MeshTriangle id 22 indSpecies 1 position 0.0199497721552588 0.0116056375452992 -0.00469425343096694 orientation 1 0 0 0 velocity 0 0 0 angularVelocity 0 0 0 force 0 0 0 torque 0 0 0 vertexNeighbors 3 vertexNeighborsElements 3 23 28 29 vertexNeighborsElements 5 20 21 26 27 28 vertexNeighborsElements 5 15 16 17 21 23 vertex  0.0299378697256541 0.0174042970988715 -0.00442315932812462 0.00997132617551484 0.0174144985752513 -0.00450780785256778 0.0199401205646075 -1.88303822532877e-06 -0.00515179311220842 edgeParticleIds  19 18 14 invMass 9622.50897298962 isActive 1
MeshTriangle id 23 indSpecies 1 position 0.0299211072307785 0.00580016028181292 -0.00477242063759214 orientation 1 0 0 0 velocity 0 0 0 angularVelocity 0 0 0 force 0 0 0 torque 0 0 0 vertexNeighbors 3 vertexNeighborsElements 3 22 28 29 vertexNeighborsElements 5 15 16 17 21 22 vertexNeighborsElements 1 17 vertex  0.0299378697256541 0.0174042970988715 -0.00442315932812462 0.0199401205646075 -1.88303822532877e-06 -0.00515179311220842 0.039885331402074 -1.93321520742779e-06 -0.00474230947244337 edgeParticleIds  19 14 15 invMass 9622.50897298962 isActive 1
MeshTriangle id 24 indSpecies 1 position -0.0199695136551665 0.0231797696733646 -0.00371223316438704 orientation 1 0 0 0 velocity 0 0 0 angularVelocity 0 0 0 force 0 0 0 torque 0 0 0 vertexNeighbors 3 vertexNeighborsElements 1 18 vertexNeighborsElements 5 18 19 20 25 26 vertexNeighborsElements 3 25 30 31 vertex  -0.029927294788559 0.0173847897051723 -0.00411010482909981 -0.00998624357907943 0.0174135665339929 -0.00445770287752988 -0.0199950025978612 0.0347409527809287 -0.00256889178653144 edgeParticleIds  17 16 20 invMass 9622.50897298962 isActive 1
MeshTriangle id 25 indSpecies 1 position -0.0099983652643703 0.0289649570441582 -0.00320980050408094 orientation 1 0 0 0 velocity 0 0 0 angularVelocity 0 0 0 force 0 0 0 torque 0 0 0 vertexNeighbors 3 vertexNeighborsElements 5 18 19 20 24 26 vertexNeighborsElements 5 26 27 31 32 33 vertexNeighborsElements 3 24 30 31 vertex  -0.00998624357907943 0.0174135665339929 -0.00445770287752988 -1.38496161703015e-05 0.0347403518175529 -0.00260280684818149 -0.0199950025978612 0.0347409527809287 -0.00256889178653144 edgeParticleIds  16 21 20 invMass 9622.50897298962 isActive 1
MeshTriangle id 26 indSpecies 1 position -9.58900657829408e-06 0.0231894723089324 -0.00385610585942639 orientation 1 0 0 0 velocity 0 0 0 angularVelocity 0 0 0 force 0 0 0 torque 0 0 0 vertexNeighbors 3 vertexNeighborsElements 5 18 19 20 24 25 vertexNeighborsElements 5 20 21 22 27 28 vertexNeighborsElements 5 25 27 31 32 33 vertex  -0.00998624357907943 0.0174135665339929 -0.00445770287752988 0.00997132617551484 0.0174144985752513 -0.00450780785256778 -1.38496161703015e-05 0.0347403518175529 -0.00260280684818149 edgeParticleIds  16 18 21 invMass 9622.50897298962 isActive 1
MeshTriangle id 27 indSpecies 1 position 0.00997092246313156 0.028962954908654 -0.00322827633696736 orientation 1 0 0 0 velocity 0 0 0 angularVelocity 0 0 0 force 0 0 0 torque 0 0 0 vertexNeighbors 3 vertexNeighborsElements 5 20 21 22 26 28 vertexNeighborsElements 5 28 29 33 34 35 vertexNeighborsElements 5 25 26 31 32 33 vertex  0.00997132617551484 0.0174144985752513 -0.00450780785256778 0.0199552908300501 0.0347340143331577 -0.00257421431015281 -1.38496161703015e-05 0.0347403518175529 -0.00260280684818149 edgeParticleIds  18 22 21 invMass 9622.50897298962 isActive 1
MeshTriangle id 28 indSpecies 1 position 0.0199548289104064 0.0231842700024268 -0.00383506049694841 orientation 1 0 0 0 velocity 0 0 0 angularVelocity 0 0 0 force 0 0 0 torque 0 0 0 vertexNeighbors 3 vertexNeighborsElements 5 20 21 22 26 27 vertexNeighborsElements 3 22 23 29 vertexNeighborsElements 5 27 29 33 34 35 vertex  0.00997132617551484 0.0174144985752513 -0.00450780785256778 0.0299378697256541 0.0174042970988715 -0.00442315932812462 0.0199552908300501 0.0347340143331577 -0.00257421431015281 edgeParticleIds  18 19 22 invMass 9622.50897298962 isActive 1
MeshTriangle id 29 indSpecies 1 position 0.0299315480235086 0.0289438958773168 -0.00314480231980149 orientation 1 0 0 0 velocity 0 0 0 angularVelocity 0 0 0 force 0 0 0 torque 0 0 0 vertexNeighbors 3 vertexNeighborsElements 3 22 23 28 vertexNeighborsElements 1 35 vertexNeighborsElements 5 27 28 33 34 35 vertex  0.0299378697256541 0.0174042970988715 -0.00442315932812462 0.0399014835148216 0.034693376199921 -0.00243703332112703 0.0199552908300501 0.0347340143331577 -0.00257421431015281 edgeParticleIds  19 23 22 invMass 9622.50897298962 isActive 1
MeshTriangle id 30 indSpecies 1 position -0.0199983341992871 0.0462213175936429 -0.000856297262177147 orientation 1 0 0 0 velocity 0 0 0 angularVelocity 0 0 0 force 0 0 0 torque 0 0 0 vertexNeighbors 3 vertexNeighborsElements 2 31 32 vertexNeighborsElements 0 vertexNeighborsElements 3 24 25 31 vertex  -0.01 0.0519615 0 -0.03 0.0519615 0 -0.0199950025978612 0.0347409527809287 -0.00256889178653144 edgeParticleIds  24 25 20 invMass 9622.50897298962 isActive 1
MeshTriangle id 31 indSpecies 1 position -0.0100029507380105 0.0404809348661605 -0.00172389954490431 orientation 1 0 0 0 velocity 0 0 0 angularVelocity 0 0 0 force 0 0 0 torque 0 0 0 vertexNeighbors 3 vertexNeighborsElements 2 30 32 vertexNeighborsElements 3 24 25 30 vertexNeighborsElements 5 25 26 27 32 33 vertex  -0.01 0.0519615 0 -0.0199950025978612 0.0347409527809287 -0.00256889178653144 -1.38496161703015e-05 0.0347403518175529 -0.00260280684818149 edgeParticleIds  24 20 21 invMass 9622.50897298962 isActive 1
MeshTriangle id 32 indSpecies 1 position -4.61653872343382e-06 0.0462211172725176 -0.000867602282727163 orientation 1 0 0 0 velocity 0 0 0 angularVelocity 0 0 0 force 0 0 0 torque 0 0 0 vertexNeighbors 3 vertexNeighborsElements 2 33 34 vertexNeighborsElements 2 30 31 vertexNeighborsElements 5 25 26 27 31 33 vertex  0.01 0.0519615 0 -0.01 0.0519615 0 -1.38496161703015e-05 0.0347403518175529 -0.00260280684818149 edgeParticleIds  26 24 21 invMass 9622.50897298962 isActive 1
MeshTriangle id 33 indSpecies 1 position 0.00998048040462662 0.0404786220502369 -0.00172567371944477 orientation 1 0 0 0 velocity 0 0 0 angularVelocity 0 0 0 force 0 0 0 torque 0 0 0 vertexNeighbors 3 vertexNeighborsElements 2 32 34 vertexNeighborsElements 5 25 26 27 31 32 vertexNeighborsElements 5 27 28 29 34 35 vertex  0.01 0.0519615 0 -1.38496161703015e-05 0.0347403518175529 -0.00260280684818149 0.0199552908300501 0.0347340143331577 -0.00257421431015281 edgeParticleIds  26 21 22 invMass 9622.50897298962 isActive 1
MeshTriangle id 34 indSpecies 1 position 0.01998509694335 0.0462190047777192 -0.000858071436717604 orientation 1 0 0 0 velocity 0 0 0 angularVelocity 0 0 0 force 0 0 0 torque 0 0 0 vertexNeighbors 3 vertexNeighborsElements 1 35 vertexNeighborsElements 2 32 33 vertexNeighborsElements 5 27 28 29 33 35 vertex  0.03 0.0519615 0 0.01 0.0519615 0 0.0199552908300501 0.0347340143331577 -0.00257421431015281 edgeParticleIds  27 26 22 invMass 9622.50897298962 isActive 1
MeshTriangle id 35 indSpecies 1 position 0.0299522581149573 0.0404629635110262 -0.00167041587709328 orientation 1 0 0 0 velocity 0 0 0 angularVelocity 0 0 0 force 0 0 0 torque 0 0 0 vertexNeighbors 3 vertexNeighborsElements 1 34 vertexNeighborsElements 5 27 28 29 33 34 vertexNeighborsElements 1 29 vertex  0.03 0.0519615 0 0.0199552908300501 0.0347340143331577 -0.00257421431015281 0.0399014835148216 0.034693376199921 -0.00243703332112703 edgeParticleIds  27 22 23 invMass 9622.50897298962 isActive 1
Boundaries 0
Particles 29
BaseParticle id 0 indSpecies 2 position -0.03 -0.0519615 0 orientation 1 0 0 0 velocity 0 0 0 angularVelocity 0 0 0 force 0.0131300927445643 0.0226232855787664 -0.00320967310119171 torque 0 0 0 radius 0.0008 invMass 0
BaseParticle id 1 indSpecies 2 position -0.01 -0.0519615 0 orientation 1 0 0 0 velocity 0 0 0 angularVelocity 0 0 0 force 0.000128924246254492 0.0422150527185282 -0.00959545874277392 torque 0 0 0 radius 0.0008 invMass 0
BaseParticle id 2 indSpecies 2 position -0.0199950460801756 -0.0347435898128262 -0.00258385759139498 orientation 1 0 0 0 velocity 0.000201885556099368 -0.00379050270413153 -0.0498190336861204 angularVelocity 0 0 0 force -2.93742651431487e-06 3.80803735449429e-05 0.000639333869689531 torque 0 0 0 radius 0.0008 invMass 5773.50538379377
BaseParticle id 3 indSpecies 2 position -1.38185575636133e-05 -0.0347442085494502 -0.00262896641977737 orientation 1 0 0 0 velocity -0.000550711208040002 -0.00380704020264036 -0.0502560647775809 angularVelocity 0 0 0 force 4.17148844209077e-06 3.9662150479141e-05 0.000664668017480105 torque 0 0 0 radius 0.0008 invMass 5773.50538379377
BaseParticle id 4 indSpecies 2 position 0.01 -0.0519615 0 orientation 1 0 0 0 velocity 0 0 0 angularVelocity 0 0 0 force -0.00449602368624873 0.0424402069619543 -0.0101687562226338 torque 0 0 0 radius 0.0008 invMass 0
BaseParticle id 5 indSpecies 2 position 0.0199553341674337 -0.0347381004190744 -0.00260214539756051 orientation 1 0 0 0 velocity -0.00177510102496787 -0.00363701149833252 -0.0498768978502269 angularVelocity 0 0 0 force 1.57464891884758e-05 3.51322763268487e-05 0.000642238673988932 torque 0 0 0 radius 0.0008 invMass 5773.50538379377
BaseParticle id 6 indSpecies 2 position 0.03 -0.0519615 0 orientation 1 0 0 0 velocity 0 0 0 angularVelocity 0 0 0 force -0.00884431319460419 0.0449872771213795 -0.00843296896473995 torque 0 0 0 radius 0.0008 invMass 0
BaseParticle id 7 indSpecies 2 position 0.0399016535422728 -0.0346955120646334 -0.00244941118943254 orientation 1 0 0 0 velocity -0.00386199701230063 -0.0021638957811968 -0.0480417185665503 angularVelocity 0 0 0 force 3.56691866295385e-05 1.21677647653088e-05 0.000554522925553005 torque 0 0 0 radius 0.0008 invMass 5773.50538379377
BaseParticle id 8 indSpecies 2 position -0.00998666318723921 -0.0174174693903748 -0.00448139088823552 orientation 1 0 0 0 velocity 0.000611433450282182 -0.00386930679344413 -0.0906368703613369 angularVelocity 0 0 0 force -5.48469635165886e-06 3.54924985651151e-05 0.00113964168038377 torque 0 0 0 radius 0.0008 invMass 5773.50538379377
BaseParticle id 9 indSpecies 2 position -0.0299276551957117 -0.017387262873583 -0.00411816570767468 orientation 1 0 0 0 velocity 0.00294616170434163 -0.00285706322607786 -0.0869602824329852 angularVelocity 0 0 0 force -2.77831591204945e-05 1.86481036458658e-05 0.000991991054725892 torque 0 0 0 radius 0.0008 invMass 5773.50538379377
BaseParticle id 10 indSpecies 2 position 0.00997131111369906 -0.0174202781796435 -0.00455355712196959 orientation 1 0 0 0 velocity -0.00109174541389913 -0.00400942239884538 -0.0913141472435998 angularVelocity 0 0 0 force 9.79092932496437e-06 3.53935692525227e-05 0.00115254743573319 torque 0 0 0 radius 0.0008 invMass 5773.50538379377
BaseParticle id 11 indSpecies 2 position 0.029937945471818 -0.0174087332072271 -0.00445248294245136 orientation 1 0 0 0 velocity -0.00239119022613041 -0.00351097909084053 -0.0876561527369223 angularVelocity 0 0 0 force 2.28296185342444e-05 2.96677467276677e-05 0.00109884017573596 torque 0 0 0 radius 0.0008 invMass 5773.50538379377
BaseParticle id 12 indSpecies 2 position -0.0199811779265258 -1.23963608400503e-06 -0.00513025963941287 orientation 1 0 0 0 velocity 0.000815175629401152 -0.000143098419891659 -0.106173558706236 angularVelocity 0 0 0 force -8.20069007135434e-06 -4.55781429078002e-07 0.00130909387478155 torque 0 0 0 radius 0.0008 invMass 5773.50538379377
BaseParticle id 13 indSpecies 2 position -1.6540061112258e-05 -1.93280876585988e-06 -0.00530678996150851 orientation 1 0 0 0 velocity -0.000567297242008135 -0.000207968002884974 -0.110536851707651 angularVelocity 0 0 0 force 5.65064864805103e-06 -1.06079099215609e-06 0.00135540333549808 torque 0 0 0 radius 0.0008 invMass 5773.50538379377
BaseParticle id 14 indSpecies 2 position 0.0199401205646075 -1.88303822532877e-06 -0.00515179311220842 orientation 1 0 0 0 velocity -0.00229589309256356 -0.000214937648733782 -0.10259634367539 angularVelocity 0 0 0 force 2.14900976700281e-05 -1.83018479028086e-06 0.00132175238050205 torque 0 0 0 radius 0.0008 invMass 5773.50538379377
BaseParticle id 15 indSpecies 2 position 0.039885331402074 -1.93321520742779e-06 -0.00474230947244337 orientation 1 0 0 0 velocity -0.00440669718490759 -0.00022146715092849 -0.0971340892157534 angularVelocity 0 0 0 force 4.27305179331924e-05 -2.52489134137425e-06 0.00112490164713916 torque 0 0 0 radius 0.0008 invMass 5773.50538379377
BaseParticle id 16 indSpecies 2 position -0.00998624357907943 0.0174135665339929 -0.00445770287752988 orientation 1 0 0 0 velocity 0.000653206145166321 0.00342012455703857 -0.0883288047002917 angularVelocity 0 0 0 force -4.41782050729014e-06 -3.84120052360904e-05 0.00115456218102532 torque 0 0 0 radius 0.0008 invMass 5773.50538379377
BaseParticle id 17 indSpecies 2 position -0.029927294788559 0.0173847897051723 -0.00411010482909981 orientation 1 0 0 0 velocity 0.00298451286727887 0.00255962452086111 -0.0860508608808379 angularVelocity 0 0 0 force -2.68974981803387e-05 -1.95780674171857e-05 0.000998326754100051 torque 0 0 0 radius 0.0008 invMass 5773.50538379377
BaseParticle id 18 indSpecies 2 position 0.00997132617551484 0.0174144985752513 -0.00450780785256778 orientation 1 0 0 0 velocity -0.00109161571169836 0.00334785239583055 -0.0869945050906115 angularVelocity 0 0 0 force 1.08263758696451e-05 -4.09289453579651e-05 0.00118109308494754 torque 0 0 0 radius 0.0008 invMass 5773.50538379377
BaseParticle id 19 indSpecies 2 position 0.0299378697256541 0.0174042970988715 -0.00442315932812462 orientation 1 0 0 0 velocity -0.00240055096387328 0.00299271252965844 -0.084779786376425 angularVelocity 0 0 0 force 2.40720736779248e-05 -3.46742117681049e-05 0.0011182554232889 torque 0 0 0 radius 0.0008 invMass 5773.50538379377
BaseParticle id 20 indSpecies 2 position -0.0199950025978612 0.0347409527809287 -0.00256889178653144 orientation 1 0 0 0 velocity 0.000203299116763231 0.00347305472501531 -0.0482663093441265 angularVelocity 0 0 0 force -1.99529950986319e-06 -4.02497108888245e-05 0.000649740006793833 torque 0 0 0 radius 0.0008 invMass 5773.50538379377
BaseParticle id 21 indSpecies 2 position -1.38496161703015e-05 0.0347403518175529 -0.00260280684818149 orientation 1 0 0 0 velocity -0.000556150892735464 0.00335729350166595 -0.0477030562554658 angularVelocity 0 0 0 force 5.11025252566025e-06 -4.33864167158137e-05 0.000681890284999164 torque 0 0 0 radius 0.0008 invMass 5773.50538379377
BaseParticle id 22 indSpecies 2 position 0.0199552908300501 0.0347340143331577 -0.00257421431015281 orientation 1 0 0 0 velocity -0.00178032781848978 0.00315865386965464 -0.0471386308187468 angularVelocity 0 0 0 force 1.67720833563056e-05 -3.95766409920978e-05 0.0006612839058056 torque 0 0 0 radius 0.0008 invMass 5773.50538379377
BaseParticle id 23 indSpecies 2 position 0.0399014835148216 0.034693376199921 -0.00243703332112703 orientation 1 0 0 0 velocity -0.00388128504572319 0.00189437722116545 -0.0466702582065976 angularVelocity 0 0 0 force 3.64961098651088e-05 -1.47240569428556e-05 0.000565674316427287 torque 0 0 0 radius 0.0008 invMass 5773.50538379377
BaseParticle id 24 indSpecies 2 position -0.01 0.0519615 0 orientation 1 0 0 0 velocity 0 0 0 angularVelocity 0 0 0 force 5.94586191134086e-05 -0.0422994262349155 -0.00945158773890314 torque 0 0 0 radius 0.0008 invMass 0
BaseParticle id 25 indSpecies 2 position -0.03 0.0519615 0 orientation 1 0 0 0 velocity 0 0 0 angularVelocity 0 0 0 force 0.0131895312150273 -0.0227184382735695 -0.00327468258226164 torque 0 0 0 radius 0.0008 invMass 0