MercuryDPM 1.0 name MembraneSelfTest revision ae1513cb repository https://bitbucket.org/mercurydpm/mercurydpm.git
dataFile    fileType NO_FILE saveCount 99999 counter 0
fStatFile   fileType NO_FILE saveCount 99999 counter 0
eneFile     fileType NO_FILE saveCount 99999 counter 0
restartFile fileType ONE_FILE saveCount 99999 counter 2 lastSavedTimeStep 20000
statFile    fileType ONE_FILE saveCount 99999 counter 0
interactionFile fileType NO_FILE saveCount 0 counter 0
xMin -1 xMax 1 yMin -1 yMax 1 zMin -1 zMax 1
timeStep 1e-05 time 0.200000000000059 ntimeSteps 20000 timeMax 0.2
systemDimensions 3 particleDimensions 3 gravity 0 0 -9.81 backgroundDrag 0 writeVTK 0 NO_FILE NO_FILE 0 0 0 0 0 random  0 1103515245 12345 1073741824 607 273 784607267
Species 3
HertzianViscoelasticMindlinSpecies id 0 density 2000 elasticModulus 10000000 dissipation 1.32186284081552 slidingDissipation 1.32186284081552 slidingFrictionCoefficient 0.5 slidingFrictionCoefficientStatic 0.5 shearModulus 6225000
HertzianViscoelasticMindlinSpecies id 1 density 2000 elasticModulus 1250000 dissipation 0.293194957100995 slidingDissipation 0.293194957100995 slidingFrictionCoefficient 1.2 slidingFrictionCoefficientStatic 1.2 shearModulus 833333.333333333
HertzianViscoelasticMindlinMixedSpecies idA 1 idB 0 elasticModulus 2222222.22222222 dissipation 0.479937646078397 slidingDissipation 0.479937646078397 slidingFrictionCoefficient 0.705882352941176 slidingFrictionCoefficientStatic 0.705882352941176 shearModulus 1469893.74262102
HertzianViscoelasticMindlinSpecies id 2 density 80761.0310104446 elasticModulus 1250000 dissipation 0.293194957100995 slidingDissipation 0.293194957100995 slidingFrictionCoefficient 1.2 slidingFrictionCoefficientStatic 1.2 shearModulus 833333.333333333
HertzianViscoelasticMindlinMixedSpecies idA 2 idB 0 elasticModulus 0 dissipation 0.479937646078397 slidingDissipation 0.479937646078397 slidingFrictionCoefficient 0 slidingFrictionCoefficientStatic 0 shearModulus 1469893.74262102
HertzianViscoelasticMindlinMixedSpecies idA 2 idB 1 elasticModulus 1250000 dissipation 0.293194957100995 slidingDissipation 0.293194957100995 slidingFrictionCoefficient 1.2 slidingFrictionCoefficientStatic 1.2 shearModulus 833333.333333333
Walls 36
MeshTriangle id 0 indSpecies 1 position -0.0199983492593093 -0.0462221967028737 -0.000861286094817579 orientation 1 0 0 0 velocity 0 0 0 angularVelocity 0 0 0 force 0 0 0 torque 0 0 0 vertexNeighbors 3 vertexNeighborsElements 0 vertexNeighborsElements 2 1 2 vertexNeighborsElements 3 1 6 7 vertex  -0.03 -0.0519615 0 -0.01 -0.0519615 0 -0.019995047777928 -0.034743590108621 -0.00258385828445274 edgeParticleIds  0 1 2 invMass 9622.50897298962 isActive 1
MeshTriangle id 1 indSpecies 1 position -0.0100029560812221 -0.0404830995326927 -0.00173760827294212 orientation 1 0 0 0 velocity 0 0 0 angularVelocity 0 0 0 force 0 0 0 torque 0 0 0 vertexNeighbors 3 vertexNeighborsElements 2 0 2 vertexNeighborsElements 5 2 3 7 8 9 vertexNeighborsElements 3 0 6 7 vertex  -0.01 -0.0519615 0 -1.38204657382201e-05 -0.034744208489457 -0.00262896653437362 -0.019995047777928 -0.034743590108621 -0.00258385828445274 edgeParticleIds  1 3 2 invMass 9622.50897298962 isActive 1
MeshTriangle id 2 indSpecies 1 position -4.60682191274003e-06 -0.046222402829819 -0.000876322178124539 orientation 1 0 0 0 velocity 0 0 0 angularVelocity 0 0 0 force 0 0 0 torque 0 0 0 vertexNeighbors 3 vertexNeighborsElements 2 0 1 vertexNeighborsElements 2 3 4 vertexNeighborsElements 5 1 3 7 8 9 vertex  -0.01 -0.0519615 0 0.01 -0.0519615 0 -1.38204657382201e-05 -0.034744208489457 -0.00262896653437362 edgeParticleIds  1 4 3 invMass 9622.50897298962 isActive 1
MeshTriangle id 3 indSpecies 1 position 0.00998050388100201 -0.0404812695751217 -0.00174370398236156 orientation 1 0 0 0 velocity 0 0 0 angularVelocity 0 0 0 force 0 0 0 torque 0 0 0 vertexNeighbors 3 vertexNeighborsElements 2 2 4 vertexNeighborsElements 5 4 5 9 10 11 vertexNeighborsElements 5 1 2 7 8 9 vertex  0.01 -0.0519615 0 0.0199553321087443 -0.0347381002359083 -0.00260214541271106 -1.38204657382201e-05 -0.034744208489457 -0.00262896653437362 edgeParticleIds  4 5 3 invMass 9622.50897298962 isActive 1
MeshTriangle id 4 indSpecies 1 position 0.0199851107029148 -0.0462203667453027 -0.00086738180423702 orientation 1 0 0 0 velocity 0 0 0 angularVelocity 0 0 0 force 0 0 0 torque 0 0 0 vertexNeighbors 3 vertexNeighborsElements 2 2 3 vertexNeighborsElements 1 5 vertexNeighborsElements 5 3 5 9 10 11 vertex  0.01 -0.0519615 0 0.03 -0.0519615 0 0.0199553321087443 -0.0347381002359083 -0.00260214541271106 edgeParticleIds  4 6 5 invMass 9622.50897298962 isActive 1
MeshTriangle id 5 indSpecies 1 position 0.0299523277656888 -0.0404650369421219 -0.00168385240178992 orientation 1 0 0 0 velocity 0 0 0 angularVelocity 0 0 0 force 0 0 0 torque 0 0 0 vertexNeighbors 3 vertexNeighborsElements 1 4 vertexNeighborsElements 1 11 vertexNeighborsElements 5 3 4 9 10 11 vertex  0.03 -0.0519615 0 0.0399016511883221 -0.0346955105904573 -0.00244941179265871 0.0199553321087443 -0.0347381002359083 -0.00260214541271106 edgeParticleIds  6 7 5 invMass 9622.50897298962 isActive 1
MeshTriangle id 6 indSpecies 1 position -0.0199697911188581 -0.0231827744629081 -0.00372780584227053 orientation 1 0 0 0 velocity 0 0 0 angularVelocity 0 0 0 force 0 0 0 torque 0 0 0 vertexNeighbors 3 vertexNeighborsElements 5 7 8 12 13 14 vertexNeighborsElements 1 12 vertexNeighborsElements 3 0 1 7 vertex  -0.0099866668233829 -0.0174174693566865 -0.00448139195351489 -0.0299276587552635 -0.0173872639234167 -0.00411816728884397 -0.019995047777928 -0.034743590108621 -0.00258385828445274 edgeParticleIds  8 9 2 invMass 9622.50897298962 isActive 1
MeshTriangle id 7 indSpecies 1 position -0.00999851168901636 -0.0289684226515881 -0.00323140559078041 orientation 1 0 0 0 velocity 0 0 0 angularVelocity 0 0 0 force 0 0 0 torque 0 0 0 vertexNeighbors 3 vertexNeighborsElements 5 6 8 12 13 14 vertexNeighborsElements 3 0 1 6 vertexNeighborsElements 5 1 2 3 8 9 vertex  -0.0099866668233829 -0.0174174693566865 -0.00448139195351489 -0.019995047777928 -0.034743590108621 -0.00258385828445274 -1.38204657382201e-05 -0.034744208489457 -0.00262896653437362 edgeParticleIds  8 2 3 invMass 9622.50897298962 isActive 1
MeshTriangle id 8 indSpecies 1 position -9.72664212748587e-06 -0.0231939852864512 -0.00388797201548272 orientation 1 0 0 0 velocity 0 0 0 angularVelocity 0 0 0 force 0 0 0 torque 0 0 0 vertexNeighbors 3 vertexNeighborsElements 5 9 10 14 15 16 vertexNeighborsElements 5 6 7 12 13 14 vertexNeighborsElements 5 1 2 3 7 9 vertex  0.00997130736273867 -0.0174202780132102 -0.00455355755855966 -0.0099866668233829 -0.0174174693566865 -0.00448139195351489 -1.38204657382201e-05 -0.034744208489457 -0.00262896653437362 edgeParticleIds  10 8 3 invMass 9622.50897298962 isActive 1
MeshTriangle id 9 indSpecies 1 position 0.00997093966858157 -0.0289675289128585 -0.00326155650188145 orientation 1 0 0 0 velocity 0 0 0 angularVelocity 0 0 0 force 0 0 0 torque 0 0 0 vertexNeighbors 3 vertexNeighborsElements 5 8 10 14 15 16 vertexNeighborsElements 5 1 2 3 7 8 vertexNeighborsElements 5 3 4 5 10 11 vertex  0.00997130736273867 -0.0174202780132102 -0.00455355755855966 -1.38204657382201e-05 -0.034744208489457 -0.00262896653437362 0.0199553321087443 -0.0347381002359083 -0.00260214541271106 edgeParticleIds  10 3 5 invMass 9622.50897298962 isActive 1
MeshTriangle id 10 indSpecies 1 position 0.0199548603210616 -0.0231890369830426 -0.00386939574194544 orientation 1 0 0 0 velocity 0 0 0 angularVelocity 0 0 0 force 0 0 0 torque 0 0 0 vertexNeighbors 3 vertexNeighborsElements 3 11 16 17 vertexNeighborsElements 5 8 9 14 15 16 vertexNeighborsElements 5 3 4 5 9 11 vertex  0.0299379414917019 -0.0174087327000093 -0.0044524842545656 0.00997130736273867 -0.0174202780132102 -0.00455355755855966 0.0199553321087443 -0.0347381002359083 -0.00260214541271106 edgeParticleIds  11 10 5 invMass 9622.50897298962 isActive 1
MeshTriangle id 11 indSpecies 1 position 0.0299316415962561 -0.028947447842125 -0.00316801381997846 orientation 1 0 0 0 velocity 0 0 0 angularVelocity 0 0 0 force 0 0 0 torque 0 0 0 vertexNeighbors 3 vertexNeighborsElements 3 10 16 17 vertexNeighborsElements 5 3 4 5 9 10 vertexNeighborsElements 1 5 vertex  0.0299379414917019 -0.0174087327000093 -0.0044524842545656 0.0199553321087443 -0.0347381002359083 -0.00260214541271106 0.0399016511883221 -0.0346955105904573 -0.00244941179265871 edgeParticleIds  11 5 7 invMass 9622.50897298962 isActive 1
MeshTriangle id 12 indSpecies 1 position -0.0199651694019586 -0.0116019909446303 -0.00457660691688434 orientation 1 0 0 0 velocity 0 0 0 angularVelocity 0 0 0 force 0 0 0 torque 0 0 0 vertexNeighbors 3 vertexNeighborsElements 1 6 vertexNeighborsElements 5 6 7 8 13 14 vertexNeighborsElements 3 13 18 19 vertex  -0.0299276587552635 -0.0173872639234167 -0.00411816728884397 -0.0099866668233829 -0.0174174693566865 -0.00448139195351489 -0.0199811826272295 -1.23955378759497e-06 -0.00513026150829418 edgeParticleIds  9 8 12 invMass 9622.50897298962 isActive 1
MeshTriangle id 13 indSpecies 1 position -0.00999479800913764 -0.00580688053978384 -0.0049728152751463 orientation 1 0 0 0 velocity 0 0 0 angularVelocity 0 0 0 force 0 0 0 torque 0 0 0 vertexNeighbors 3 vertexNeighborsElements 5 6 7 8 12 14 vertexNeighborsElements 5 14 15 19 20 21 vertexNeighborsElements 3 12 18 19 vertex  -0.0099866668233829 -0.0174174693566865 -0.00448139195351489 -1.6544576800523e-05 -1.9327088774404e-06 -0.00530679236362983 -0.0199811826272295 -1.23955378759497e-06 -0.00513026150829418 edgeParticleIds  8 13 12 invMass 9622.50897298962 isActive 1
MeshTriangle id 14 indSpecies 1 position -1.06346791482535e-05 -0.0116132266929247 -0.00478058062523479 orientation 1 0 0 0 velocity 0 0 0 angularVelocity 0 0 0 force 0 0 0 torque 0 0 0 vertexNeighbors 3 vertexNeighborsElements 5 6 7 8 12 13 vertexNeighborsElements 5 8 9 10 15 16 vertexNeighborsElements 5 13 15 19 20 21 vertex  -0.0099866668233829 -0.0174174693566865 -0.00448139195351489 0.00997130736273867 -0.0174202780132102 -0.00455355755855966 -1.6544576800523e-05 -1.9327088774404e-06 -0.00530679236362983 edgeParticleIds  8 10 13 invMass 9622.50897298962 isActive 1
MeshTriangle id 15 indSpecies 1 position 0.00996495963404481 -0.00580803121962029 -0.00500404868289117 orientation 1 0 0 0 velocity 0 0 0 angularVelocity 0 0 0 force 4.58509585356756e-05 -0.000263491499540604 -0.00940612453820195 torque -2.85442374711291e-05 -7.41738823434179e-05 1.93867376118966e-06 vertexNeighbors 3 vertexNeighborsElements 5 8 9 10 14 16 vertexNeighborsElements 5 16 17 21 22 23 vertexNeighborsElements 5 13 14 19 20 21 vertex  0.00997130736273867 -0.0174202780132102 -0.00455355755855966 0.0199401161161963 -1.88293677318224e-06 -0.00515179612648402 -1.6544576800523e-05 -1.9327088774404e-06 -0.00530679236362983 edgeParticleIds  10 14 13 invMass 9622.50897298962 isActive 1
MeshTriangle id 16 indSpecies 1 position 0.0199497883235456 -0.0116102978833309 -0.00471927931320309 orientation 1 0 0 0 velocity 0 0 0 angularVelocity 0 0 0 force 0 0 0 torque 0 0 0 vertexNeighbors 3 vertexNeighborsElements 5 8 9 10 14 15 vertexNeighborsElements 3 10 11 17 vertexNeighborsElements 5 15 17 21 22 23 vertex  0.00997130736273867 -0.0174202780132102 -0.00455355755855966 0.0299379414917019 -0.0174087327000093 -0.0044524842545656 0.0199401161161963 -1.88293677318224e-06 -0.00515179612648402 edgeParticleIds  10 11 14 invMass 9622.50897298962 isActive 1
MeshTriangle id 17 indSpecies 1 position 0.0299211282348578 -0.00580418291834225 -0.00478219741032683 orientation 1 0 0 0 velocity 0 0 0 angularVelocity 0 0 0 force 0 0 0 torque 0 0 0 vertexNeighbors 3 vertexNeighborsElements 3 10 11 16 vertexNeighborsElements 1 23 vertexNeighborsElements 5 15 16 21 22 23 vertex  0.0299379414917019 -0.0174087327000093 -0.0044524842545656 0.0398853270966753 -1.93311824424153e-06 -0.00474231184993087 0.0199401161161963 -1.88293677318224e-06 -0.00515179612648402 edgeParticleIds  11 15 14 invMass 9622.50897298962 isActive 1
MeshTriangle id 18 indSpecies 1 position -0.0199649093975367 0.0115990393618388 -0.00456602449233955 orientation 1 0 0 0 velocity 0 0 0 angularVelocity 0 0 0 force 0 0 0 torque 0 0 0 vertexNeighbors 3 vertexNeighborsElements 5 19 20 24 25 26 vertexNeighborsElements 1 24 vertexNeighborsElements 3 12 13 19 vertex  -0.00998624721026805 0.0174135667155876 -0.00445770510768083 -0.0299272983551125 0.0173847909237165 -0.00411010686104362 -0.0199811826272295 -1.23955378759497e-06 -0.00513026150829418 edgeParticleIds  16 17 12 invMass 9622.50897298962 isActive 1
MeshTriangle id 19 indSpecies 1 position -0.00999465813809936 0.00580346481764085 -0.00496491965986828 orientation 1 0 0 0 velocity 0 0 0 angularVelocity 0 0 0 force 0 0 0 torque 0 0 0 vertexNeighbors 3 vertexNeighborsElements 5 18 20 24 25 26 vertexNeighborsElements 3 12 13 18 vertexNeighborsElements 5 13 14 15 20 21 vertex  -0.00998624721026805 0.0174135667155876 -0.00445770510768083 -0.0199811826272295 -1.23955378759497e-06 -0.00513026150829418 -1.6544576800523e-05 -1.9327088774404e-06 -0.00530679236362983 edgeParticleIds  16 12 13 invMass 9622.50897298962 isActive 1
MeshTriangle id 20 indSpecies 1 position -1.0489773281076e-05 0.0116087109032634 -0.00475743597848405 orientation 1 0 0 0 velocity 0 0 0 angularVelocity 0 0 0 force 0 0 0 torque 0 0 0 vertexNeighbors 3 vertexNeighborsElements 5 21 22 26 27 28 vertexNeighborsElements 5 18 19 24 25 26 vertexNeighborsElements 5 13 14 15 19 21 vertex  0.00997132246722535 0.0174144987030802 -0.00450781046414149 -0.00998624721026805 0.0174135667155876 -0.00445770510768083 -1.6544576800523e-05 -1.9327088774404e-06 -0.00530679236362983 edgeParticleIds  18 16 13 invMass 9622.50897298962 isActive 1
MeshTriangle id 21 indSpecies 1 position 0.0099649646688737 0.00580356101914318 -0.00498879965141844 orientation 1 0 0 0 velocity 0 0 0 angularVelocity 0 0 0 force 0 0 0 torque 0 0 0 vertexNeighbors 3 vertexNeighborsElements 5 20 22 26 27 28 vertexNeighborsElements 5 13 14 15 19 20 vertexNeighborsElements 5 15 16 17 22 23 vertex  0.00997132246722535 0.0174144987030802 -0.00450781046414149 -1.6544576800523e-05 -1.9327088774404e-06 -0.00530679236362983 0.0199401161161963 -1.88293677318224e-06 -0.00515179612648402 edgeParticleIds  18 13 14 invMass 9622.50897298962 isActive 1
MeshTriangle id 22 indSpecies 1 position 0.0199497681236709 0.0116056375316004 -0.00469425622242914 orientation 1 0 0 0 velocity 0 0 0 angularVelocity 0 0 0 force 0 0 0 torque 0 0 0 vertexNeighbors 3 vertexNeighborsElements 3 23 28 29 vertexNeighborsElements 5 20 21 26 27 28 vertexNeighborsElements 5 15 16 17 21 23 vertex  0.029937865787591 0.0174042968284941 -0.00442316207666191 0.00997132246722535 0.0174144987030802 -0.00450781046414149 0.0199401161161963 -1.88293677318224e-06 -0.00515179612648402 edgeParticleIds  19 18 14 invMass 9622.50897298962 isActive 1
MeshTriangle id 23 indSpecies 1 position 0.0299211030001542 0.00580016025782555 -0.0047724233510256 orientation 1 0 0 0 velocity 0 0 0 angularVelocity 0 0 0 force 0 0 0 torque 0 0 0 vertexNeighbors 3 vertexNeighborsElements 3 22 28 29 vertexNeighborsElements 5 15 16 17 21 22 vertexNeighborsElements 1 17 vertex  0.029937865787591 0.0174042968284941 -0.00442316207666191 0.0199401161161963 -1.88293677318224e-06 -0.00515179612648402 0.0398853270966753 -1.93311824424153e-06 -0.00474231184993087 edgeParticleIds  19 14 15 invMass 9622.50897298962 isActive 1
MeshTriangle id 24 indSpecies 1 position -0.0199695166145224 0.0231797702890097 -0.00371223507654176 orientation 1 0 0 0 velocity 0 0 0 angularVelocity 0 0 0 force 0 0 0 torque 0 0 0 vertexNeighbors 3 vertexNeighborsElements 1 18 vertexNeighborsElements 5 18 19 20 25 26 vertexNeighborsElements 3 25 30 31 vertex  -0.0299272983551125 0.0173847909237165 -0.00411010686104362 -0.00998624721026805 0.0174135667155876 -0.00445770510768083 -0.0199950042781865 0.0347409532277248 -0.00256889326090082 edgeParticleIds  17 16 20 invMass 9622.50897298962 isActive 1
MeshTriangle id 25 indSpecies 1 position -0.00999836766287552 0.0289649572999436 -0.0032098022054701 orientation 1 0 0 0 velocity 0 0 0 angularVelocity 0 0 0 force 0 0 0 torque 0 0 0 vertexNeighbors 3 vertexNeighborsElements 5 18 19 20 24 26 vertexNeighborsElements 5 26 27 31 32 33 vertexNeighborsElements 3 24 30 31 vertex  -0.00998624721026805 0.0174135667155876 -0.00445770510768083 -1.38515001719762e-05 0.0347403519565185 -0.00260280824782865 -0.0199950042781865 0.0347409532277248 -0.00256889326090082 edgeParticleIds  16 21 20 invMass 9622.50897298962 isActive 1
MeshTriangle id 26 indSpecies 1 position -9.5920810715604e-06 0.0231894724583954 -0.00385610793988365 orientation 1 0 0 0 velocity 0 0 0 angularVelocity 0 0 0 force 0 0 0 torque 0 0 0 vertexNeighbors 3 vertexNeighborsElements 5 18 19 20 24 25 vertexNeighborsElements 5 20 21 22 27 28 vertexNeighborsElements 5 25 27 31 32 33 vertex  -0.00998624721026805 0.0174135667155876 -0.00445770510768083 0.00997132246722535 0.0174144987030802 -0.00450781046414149 -1.38515001719762e-05 0.0347403519565185 -0.00260280824782865 edgeParticleIds  16 18 21 invMass 9622.50897298962 isActive 1
MeshTriangle id 27 indSpecies 1 position 0.0099709199227581 0.0289629550072119 -0.00322827813481118 orientation 1 0 0 0 velocity 0 0 0 angularVelocity 0 0 0 force 0 0 0 torque 0 0 0 vertexNeighbors 3 vertexNeighborsElements 5 20 21 22 26 28 vertexNeighborsElements 5 28 29 33 34 35 vertexNeighborsElements 5 25 26 31 32 33 vertex  0.00997132246722535 0.0174144987030802 -0.00450781046414149 0.0199552888012209 0.034734014362037 -0.00257421569246341 -1.38515001719762e-05 0.0347403519565185 -0.00260280824782865 edgeParticleIds  18 22 21 invMass 9622.50897298962 isActive 1
MeshTriangle id 28 indSpecies 1 position 0.0199548256853458 0.0231842699645371 -0.00383506274442227 orientation 1 0 0 0 velocity 0 0 0 angularVelocity 0 0 0 force 0 0 0 torque 0 0 0 vertexNeighbors 3 vertexNeighborsElements 5 20 21 22 26 27 vertexNeighborsElements 3 22 23 29 vertexNeighborsElements 5 27 29 33 34 35 vertex  0.00997132246722535 0.0174144987030802 -0.00450781046414149 0.029937865787591 0.0174042968284941 -0.00442316207666191 0.0199552888012209 0.034734014362037 -0.00257421569246341 edgeParticleIds  18 19 22 invMass 9622.50897298962 isActive 1
MeshTriangle id 29 indSpecies 1 position 0.029931545264761 0.0289438953520575 -0.00314480412221529 orientation 1 0 0 0 velocity 0 0 0 angularVelocity 0 0 0 force 0 0 0 torque 0 0 0 vertexNeighbors 3 vertexNeighborsElements 3 22 23 28 vertexNeighborsElements 1 35 vertexNeighborsElements 5 27 28 33 34 35 vertex  0.029937865787591 0.0174042968284941 -0.00442316207666191 0.039901481205471 0.0346933748656416 -0.00243703459752056 0.0199552888012209 0.034734014362037 -0.00257421569246341 edgeParticleIds  19 23 22 invMass 9622.50897298962 isActive 1
MeshTriangle id 30 indSpecies 1 position -0.0199983347593955 0.046221317742575 -0.000856297753633606 orientation 1 0 0 0 velocity 0 0 0 angularVelocity 0 0 0 force 0 0 0 torque 0 0 0 vertexNeighbors 3 vertexNeighborsElements 2 31 32 vertexNeighborsElements 0 vertexNeighborsElements 3 24 25 31 vertex  -0.01 0.0519615 0 -0.03 0.0519615 0 -0.0199950042781865 0.0347409532277248 -0.00256889326090082 edgeParticleIds  24 25 20 invMass 9622.50897298962 isActive 1
MeshTriangle id 31 indSpecies 1 position -0.0100029519261195 0.0404809350614144 -0.00172390050290982 orientation 1 0 0 0 velocity 0 0 0 angularVelocity 0 0 0 force 0 0 0 torque 0 0 0 vertexNeighbors 3 vertexNeighborsElements 2 30 32 vertexNeighborsElements 3 24 25 30 vertexNeighborsElements 5 25 26 27 32 33 vertex  -0.01 0.0519615 0 -0.0199950042781865 0.0347409532277248 -0.00256889326090082 -1.38515001719762e-05 0.0347403519565185 -0.00260280824782865 edgeParticleIds  24 20 21 invMass 9622.50897298962 isActive 1
MeshTriangle id 32 indSpecies 1 position -4.61716672399207e-06 0.0462211173188395 -0.000867602749276217 orientation 1 0 0 0 velocity 0 0 0 angularVelocity 0 0 0 force 0 0 0 torque 0 0 0 vertexNeighbors 3 vertexNeighborsElements 2 33 34 vertexNeighborsElements 2 30 31 vertexNeighborsElements 5 25 26 27 31 33 vertex  0.01 0.0519615 0 -0.01 0.0519615 0 -1.38515001719762e-05 0.0347403519565185 -0.00260280824782865 edgeParticleIds  26 24 21 invMass 9622.50897298962 isActive 1
MeshTriangle id 33 indSpecies 1 position 0.00998047910034965 0.0404786221061852 -0.00172567464676402 orientation 1 0 0 0 velocity 0 0 0 angularVelocity 0 0 0 force 0 0 0 torque 0 0 0 vertexNeighbors 3 vertexNeighborsElements 2 32 34 vertexNeighborsElements 5 25 26 27 31 32 vertexNeighborsElements 5 27 28 29 34 35 vertex  0.01 0.0519615 0 -1.38515001719762e-05 0.0347403519565185 -0.00260280824782865 0.0199552888012209 0.034734014362037 -0.00257421569246341 edgeParticleIds  26 21 22 invMass 9622.50897298962 isActive 1
MeshTriangle id 34 indSpecies 1 position 0.0199850962670736 0.0462190047873457 -0.000858071897487802 orientation 1 0 0 0 velocity 0 0 0 angularVelocity 0 0 0 force 0 0 0 torque 0 0 0 vertexNeighbors 3 vertexNeighborsElements 1 35 vertexNeighborsElements 2 32 33 vertexNeighborsElements 5 27 28 29 33 35 vertex  0.03 0.0519615 0 0.01 0.0519615 0 0.0199552888012209 0.034734014362037 -0.00257421569246341 edgeParticleIds  27 26 22 invMass 9622.50897298962 isActive 1
MeshTriangle id 35 indSpecies 1 position 0.0299522566688973 0.0404629630758929 -0.00167041676332799 orientation 1 0 0 0 velocity 0 0 0 angularVelocity 0 0 0 force 0 0 0 torque 0 0 0 vertexNeighbors 3 vertexNeighborsElements 1 34 vertexNeighborsElements 5 27 28 29 33 34 vertexNeighborsElements 1 29 vertex  0.03 0.0519615 0 0.0199552888012209 0.034734014362037 -0.00257421569246341 0.039901481205471 0.0346933748656416 -0.00243703459752056 edgeParticleIds  27 22 23 invMass 9622.50897298962 isActive 1
Boundaries 0
Particles 29
BaseParticle id 0 indSpecies 2 position -0.03 -0.0519615 0 orientation 1 0 0 0 velocity 0 0 0 angularVelocity 0 0 0 force 0.0131299439526729 0.0226230327566787 -0.00320963758740273 torque 0 0 0 radius 0.0008 invMass 0
BaseParticle id 1 indSpecies 2 position -0.01 -0.0519615 0 orientation 1 0 0 0 velocity 0 0 0 angularVelocity 0 0 0 force 0.000128692162035181 0.0422150042155949 -0.00959545018051027 torque 0 0 0 radius 0.0008 invMass 0
BaseParticle id 2 indSpecies 2 position -0.019995047777928 -0.034743590108621 -0.00258385828445274 orientation 1 0 0 0 velocity 0.000202929973030326 -0.00379034000462745 -0.0498189358398635 angularVelocity 0 0 0 force -2.89668462201854e-06 3.80874848496183e-05 0.000639342045483405 torque 0 0 0 radius 0.0008 invMass 5773.50538379377
BaseParticle id 3 indSpecies 2 position -1.38204657382201e-05 -0.034744208489457 -0.00262896653437362 orientation 1 0 0 0 velocity -0.000549545997274056 -0.00380704162564823 -0.0502559799199845 angularVelocity 0 0 0 force 4.21714194486846e-06 3.9661506630598e-05 0.000664669604819905 torque 0 0 0 radius 0.0008 invMass 5773.50538379377
BaseParticle id 4 indSpecies 2 position 0.01 -0.0519615 0 orientation 1 0 0 0 velocity 0 0 0 angularVelocity 0 0 0 force -0.00449630223363977 0.0424402491541416 -0.010168756387014 torque 0 0 0 radius 0.0008 invMass 0
BaseParticle id 5 indSpecies 2 position 0.0199553321087443 -0.0347381002359083 -0.00260214541271106 orientation 1 0 0 0 velocity -0.00177386024660799 -0.00363707428503625 -0.0498768889337263 angularVelocity 0 0 0 force 1.57955138263544e-05 3.51287244744035e-05 0.000642236608917706 torque 0 0 0 radius 0.0008 invMass 5773.50538379377
BaseParticle id 6 indSpecies 2 position 0.03 -0.0519615 0 orientation 1 0 0 0 velocity 0 0 0 angularVelocity 0 0 0 force -0.00884446637485834 0.0449876257115619 -0.00843302052999902 torque 0 0 0 radius 0.0008 invMass 0
BaseParticle id 7 indSpecies 2 position 0.0399016511883221 -0.0346955105904573 -0.00244941179265871 orientation 1 0 0 0 velocity -0.00386061305414443 -0.00216476415681319 -0.0480416734183636 angularVelocity 0 0 0 force 3.57244227749288e-05 1.21318586738198e-05 0.000554518735864926 torque 0 0 0 radius 0.0008 invMass 5773.50538379377
BaseParticle id 8 indSpecies 2 position -0.0099866668233829 -0.0174174693566865 -0.00448139195351489 orientation 1 0 0 0 velocity 0.000613660939223307 -0.00386930855939583 -0.0906366311633319 angularVelocity 0 0 0 force -5.39704338141831e-06 3.54915936153138e-05 0.00113964503817785 torque 0 0 0 radius 0.0008 invMass 5773.50538379377
BaseParticle id 9 indSpecies 2 position -0.0299276587552635 -0.0173872639234167 -0.00411816728884397 orientation 1 0 0 0 velocity 0.00294835967402107 -0.00285644052964928 -0.0869599815262695 angularVelocity 0 0 0 force -2.76967287080876e-05 1.86729964214566e-05 0.00099199876983312 torque 0 0 0 radius 0.0008 invMass 5773.50538379377
BaseParticle id 10 indSpecies 2 position 0.00997130736273867 -0.0174202780132102 -0.00455355755855966 orientation 1 0 0 0 velocity -0.00108946978603832 -0.00400946327811405 -0.0913140722947727 angularVelocity 0 0 0 force 9.88085851281319e-06 3.53907023442541e-05 0.00115255000592824 torque 0 0 0 radius 0.0008 invMass 5773.50538379377
BaseParticle id 11 indSpecies 2 position 0.0299379414917019 -0.0174087327000093 -0.0044524842545656 orientation 1 0 0 0 velocity -0.00238879251355017 -0.00351126910974309 -0.0876563004972159 angularVelocity 0 0 0 force 2.29245334898487e-05 2.96554402909e-05 0.00109884163581563 torque 0 0 0 radius 0.0008 invMass 5773.50538379377
BaseParticle id 12 indSpecies 2 position -0.0199811826272295 -1.23955378759497e-06 -0.00513026150829418 orientation 1 0 0 0 velocity 0.000818035901114747 -0.000143122448271302 -0.106173132858305 angularVelocity 0 0 0 force -8.08745505453664e-06 -4.57570290627208e-07 0.00130908954581149 torque 0 0 0 radius 0.0008 invMass 5773.50538379377
BaseParticle id 13 indSpecies 2 position -1.6544576800523e-05 -1.9327088774404e-06 -0.00530679236362983 orientation 1 0 0 0 velocity -0.000564566848625248 -0.000207987663897456 -0.110536712733241 angularVelocity 0 0 0 force 5.758791004357e-06 -1.06296440399306e-06 0.00135540494485416 torque 0 0 0 radius 0.0008 invMass 5773.50538379377
BaseParticle id 14 indSpecies 2 position 0.0199401161161963 -1.88293677318224e-06 -0.00515179612648402 orientation 1 0 0 0 velocity -0.00229321283821256 -0.000214947973224717 -0.102596523698992 angularVelocity 0 0 0 force 2.15961462132225e-05 -1.83192308239372e-06 0.00132175538802378 torque 0 0 0 radius 0.0008 invMass 5773.50538379377
BaseParticle id 15 indSpecies 2 position 0.0398853270966753 -1.93311824424153e-06 -0.00474231184993087 orientation 1 0 0 0 velocity -0.00440413990530814 -0.000221464084702258 -0.0971344118662991 angularVelocity 0 0 0 force 4.28320333977616e-05 -2.52610012162723e-06 0.00112489374421786 torque 0 0 0 radius 0.0008 invMass 5773.50538379377
BaseParticle id 16 indSpecies 2 position -0.00998624721026805 0.0174135667155876 -0.00445770510768083 orientation 1 0 0 0 velocity 0.000655413675875983 0.00342009958318055 -0.0883286481528189 angularVelocity 0 0 0 force -4.33005344732838e-06 -3.84141801470407e-05 0.0011545652482207 torque 0 0 0 radius 0.0008 invMass 5773.50538379377
BaseParticle id 17 indSpecies 2 position -0.0299272983551125 0.0173847909237165 -0.00411010686104362 orientation 1 0 0 0 velocity 0.00298670397050581 0.00255895683253181 -0.0860505986132561 angularVelocity 0 0 0 force -2.68099966804613e-05 -1.96058378201004e-05 0.00099833423989588 torque 0 0 0 radius 0.0008 invMass 5773.50538379377
BaseParticle id 18 indSpecies 2 position 0.00997132246722535 0.0174144987030802 -0.00450781046414149 orientation 1 0 0 0 velocity -0.00108937800999716 0.00334788089804858 -0.0869945778691461 angularVelocity 0 0 0 force 1.09150507471731e-05 -4.0929237619759e-05 0.00118109494286339 torque 0 0 0 radius 0.0008 invMass 5773.50538379377
BaseParticle id 19 indSpecies 2 position 0.029937865787591 0.0174042968284941 -0.00442316207666191 orientation 1 0 0 0 velocity -0.00239819280778921 0.0029929928974131 -0.0847800245095561 angularVelocity 0 0 0 force 2.41654261229771e-05 -3.46647174050414e-05 0.00111825602889384 torque 0 0 0 radius 0.0008 invMass 5773.50538379377
BaseParticle id 20 indSpecies 2 position -0.0199950042781865 0.0347409532277248 -0.00256889326090082 orientation 1 0 0 0 velocity 0.000204324079618759 0.00347287924456616 -0.0482662718656122 angularVelocity 0 0 0 force -1.95440881191535e-06 -4.02582942283254e-05 0.000649748172850084 torque 0 0 0 radius 0.0008 invMass 5773.50538379377
BaseParticle id 21 indSpecies 2 position -1.38515001719762e-05 0.0347403519565185 -0.00260280824782865 orientation 1 0 0 0 velocity -0.000555009520206307 0.00335729278342037 -0.0477030615572394 angularVelocity 0 0 0 force 5.15550463222456e-06 -4.33872719153574e-05 0.00068189158179819 torque 0 0 0 radius 0.0008 invMass 5773.50538379377
BaseParticle id 22 indSpecies 2 position 0.0199552888012209 0.034734014362037 -0.00257421569246341 orientation 1 0 0 0 velocity -0.0017791183621505 0.00315871630335609 -0.0471387127533794 angularVelocity 0 0 0 force 1.68198737598214e-05 -3.95746633222797e-05 0.000661281292679584 torque 0 0 0 radius 0.0008 invMass 5773.50538379377
BaseParticle id 23 indSpecies 2 position 0.039901481205471 0.0346933748656416 -0.00243703459752056 orientation 1 0 0 0 velocity -0.00387994194699339 0.00189522479890882 -0.0466702561549488 angularVelocity 0 0 0 force 3.65490886318851e-05 -1.46904114059748e-05 0.000565669795192244 torque 0 0 0 radius 0.0008 invMass 5773.50538379377
BaseParticle id 24 indSpecies 2 position -0.01 0.0519615 0 orientation 1 0 0 0 velocity 0 0 0 angularVelocity 0 0 0 force 5.92333663930351e-05 -0.0422993692776737 -0.00945158570637593 torque 0 0 0 radius 0.0008 invMass 0
BaseParticle id 25 indSpecies 2 position -0.03 0.0519615 0 orientation 1 0 0 0 velocity 0 0 0 angularVelocity 0 0 0 force 0.0131893792654735 -0.0227181801676595 -0.00327464477180716 torque 0 0 0 radius 0.0008 invMass 0