<?xml version="1.0"?>
<!-- time 1-->
<VTKFile type="UnstructuredGrid" version="0.1" byte_order="LittleEndian">
<UnstructuredGrid>
<Piece NumberOfPoints="66" NumberOfCells="0">
<Points>
  <DataArray type="Float32" Name="Position" NumberOfComponents="3" format="ascii">
	-0.0606374 -0.0606374 0.0676553
	-0.0654995 0.0920455 0.155701
	-0.0654995 0.196591 0.155701
	-0.0654995 0.301136 0.155701
	-0.0654995 0.405682 0.155701
	-0.0654995 0.510227 0.155701
	-0.0654995 0.614773 0.155701
	-0.0654995 0.719318 0.155701
	-0.0654995 0.823864 0.155701
	-0.0654995 0.928409 0.155701
	-0.0335996 1.08858 -0.0150568
	0.0920455 -0.0654995 0.155701
	0.0920455 0.0920455 0.11299
	0.0920455 0.196591 0.11299
	0.0920455 0.301136 0.11299
	0.0920455 0.405682 0.11299
	0.0920455 0.510227 0.11299
	0.0920455 0.614773 0.11299
	0.0920455 0.719318 0.11299
	0.0920455 0.823864 0.11299
	0.144731 0.981094 0.197513
	0.196591 -0.0654995 0.155701
	0.196591 0.0920455 0.11299
	0.196591 0.196591 0.11299
	0.196591 0.301136 0.11299
	0.196591 0.405682 0.11299
	0.196591 0.510227 0.11299
	0.196591 0.614773 0.11299
	0.196591 0.719318 0.11299
	0.249276 0.876549 0.197513
	0.301136 -0.0654995 0.155701
	0.301136 0.0920455 0.11299
	0.301136 0.196591 0.11299
	0.301136 0.301136 0.11299
	0.301136 0.405682 0.11299
	0.301136 0.510227 0.11299
	0.301136 0.614773 0.11299
	0.353822 0.772003 0.197513
	0.405682 -0.0654995 0.155701
	0.405682 0.0920455 0.11299
	0.405682 0.196591 0.11299
	0.405682 0.301136 0.11299
	0.405682 0.405682 0.11299
	0.405682 0.510227 0.11299
	0.458367 0.667458 0.197513
	0.510227 -0.0654995 0.155701
	0.510227 0.0920455 0.11299
	0.510227 0.196591 0.11299
	0.510227 0.301136 0.11299
	0.510227 0.405682 0.11299
	0.562913 0.562913 0.197513
	0.614773 -0.0654995 0.155701
	0.614773 0.0920455 0.11299
	0.614773 0.196591 0.11299
	0.614773 0.301136 0.11299
	0.667458 0.458367 0.197513
	0.719318 -0.0654995 0.155701
	0.719318 0.0920455 0.11299
	0.719318 0.196591 0.11299
	0.772003 0.353822 0.197513
	0.823864 -0.0654995 0.155701
	0.823864 0.0920455 0.11299
	0.876549 0.249276 0.197513
	0.928409 -0.0654995 0.155701
	0.981094 0.144731 0.197513
	1.08858 -0.0335996 -0.0150568
  </DataArray>
</Points>
<PointData  Vectors="vector">
  <DataArray type="Float32" Name="Velocity" NumberOfComponents="3" format="ascii">
 -0.0618466 -0.0618466 0.0483901
 -0.0538056 0 0.108819
 -0.0538056 0 0.108819
 -0.0538056 0 0.108819
 -0.0538056 0 0.108819
 -0.0538056 0 0.108819
 -0.0538056 0 0.108819
 -0.0538056 0 0.108819
 -0.0538056 0 0.108819
 -0.0538056 0 0.108819
 -0.0305261 0.0804779 -0.0508824
 0 -0.0538056 0.108819
 0 0 0.100005
 0 0 0.100005
 0 0 0.100005
 0 0 0.100005
 0 0 0.100005
 0 0 0.100005
 0 0 0.100005
 0 0 0.100005
 0.0537565 0.0537565 0.152512
 0 -0.0538056 0.108819
 0 0 0.100005
 0 0 0.100005
 0 0 0.100005
 0 0 0.100005
 0 0 0.100005
 0 0 0.100005
 0 0 0.100005
 0.0537565 0.0537565 0.152512
 0 -0.0538056 0.108819
 0 0 0.100005
 0 0 0.100005
 0 0 0.100005
 0 0 0.100005
 0 0 0.100005
 0 0 0.100005
 0.0537565 0.0537565 0.152512
 0 -0.0538056 0.108819
 0 0 0.100005
 0 0 0.100005
 0 0 0.100005
 0 0 0.100005
 0 0 0.100005
 0.0537565 0.0537565 0.152512
 0 -0.0538056 0.108819
 0 0 0.100005
 0 0 0.100005
 0 0 0.100005
 0 0 0.100005
 0.0537565 0.0537565 0.152512
 0 -0.0538056 0.108819
 0 0 0.100005
 0 0 0.100005
 0 0 0.100005
 0.0537565 0.0537565 0.152512
 0 -0.0538056 0.108819
 0 0 0.100005
 0 0 0.100005
 0.0537565 0.0537565 0.152512
 0 -0.0538056 0.108819
 0 0 0.100005
 0.0537565 0.0537565 0.152512
 0 -0.0538056 0.108819
 0.0537565 0.0537565 0.152512
 0.0804779 -0.0305261 -0.0508824
  </DataArray>
  <DataArray type="Float32" Name="Radius" format="ascii">
	0.05
	0.05
	0.05
	0.05
	0.05
	0.05
	0.05
	0.05
	0.05
	0.05
	0.05
	0.05
	0.05
	0.05
	0.05
	0.05
	0.05
	0.05
	0.05
	0.05
	0.05
	0.05
	0.05
	0.05
	0.05
	0.05
	0.05
	0.05
	0.05
	0.05
	0.05
	0.05
	0.05
	0.05
	0.05
	0.05
	0.05
	0.05
	0.05
	0.05
	0.05
	0.05
	0.05
	0.05
	0.05
	0.05
	0.05
	0.05
	0.05
	0.05
	0.05
	0.05
	0.05
	0.05
	0.05
	0.05
	0.05
	0.05
	0.05
	0.05
	0.05
	0.05
	0.05
	0.05
	0.05
	0.05
  </DataArray>
  <DataArray type="Float32" Name="speciesType" format="ascii">
	0
	0
	0
	0
	0
	0
	0
	0
	0
	0
	0
	0
	0
	0
	0
	0
	0
	0
	0
	0
	0
	0
	0
	0
	0
	0
	0
	0
	0
	0
	0
	0
	0
	0
	0
	0
	0
	0
	0
	0
	0
	0
	0
	0
	0
	0
	0
	0
	0
	0
	0
	0
	0
	0
	0
	0
	0
	0
	0
	0
	0
	0
	0
	0
	0
	0
  </DataArray>
</PointData>
<Cells>
  <DataArray type="Int32" Name="connectivity" format="ascii">
  </DataArray>
  <DataArray type="Int32" Name="offsets" format="ascii">
  </DataArray>
  <DataArray type="UInt8"  Name="types" format="ascii">
  </DataArray>
</Cells>
</Piece>
</UnstructuredGrid>
</VTKFile>
