MercuryDPM 1.0 name FullRestartSelfTestRestarted revision 7622ee90 repository https://bitbucket.org/mercurydpm/mercurydpm.git
dataFile    fileType ONE_FILE saveCount 20 counter 0
fStatFile   fileType ONE_FILE saveCount 20 counter 0
eneFile     fileType ONE_FILE saveCount 20 counter 0
restartFile fileType ONE_FILE saveCount 20 counter 2 lastSavedTimeStep 0
statFile    fileType ONE_FILE saveCount 20 counter 0
interactionFile fileType NO_FILE saveCount 0 counter 0
xMin 0 xMax 0 yMin 0 yMax 0 zMin 0 zMax 0
timeStep 0 time 0 ntimeSteps 0 timeMax 0
systemDimensions 3 particleDimensions 3 gravity 0 0 0 backgroundDrag 0 writeVTK 0 NO_FILE NO_FILE 0 0 0 0 0 random  0 1103515245 12345 1073741824 607 273 615141746
Species 2
LinearViscoelasticSpecies id 0 density 1 stiffness 0 dissipation 0
LinearViscoelasticSpecies id 1 density 1 stiffness 0 dissipation 0
LinearViscoelasticMixedSpecies idA 1 idB 0 stiffness 0 dissipation 0
Walls 7
Coil id 0 indSpecies 0 position 0 0 0 orientation 1 0 0 0 velocity 0 0 0 angularVelocity 0 0 0 force 0 0 0 torque 0 0 0 Start 0.1 0.2 0.3 Length 0.4 Radius 0.5 Revolutions 0.6 Omega 0.7 Thickness 0.8 Offset 0
CylindricalWall id 1 indSpecies 0 position 0 0 0 orientation 1 0 0 0 velocity 0 0 0 angularVelocity 0 0 0 force 0 0 0 torque 0 0 0  radius 0.1
AxisymmetricIntersectionOfWalls id 2 indSpecies 0 position 0.1 0.2 0.3 orientation 0.853182953954939 0 -0.400713267645723 0.333927723038102 velocity 0 0 0 angularVelocity 0 0 0 force 0 0 0 torque 0 0 0 numIntersectionOfWalls 1 position 0.077 0.088 0.099 orientation 0.86676718645563 0 -0.372742734642644 0.331326875237906
IntersectionOfWalls id 3 indSpecies 0 position 0 0 0 orientation 1 0 0 0 velocity 0 0 0 angularVelocity 0 0 0 force 0 0 0 torque 0 0 0 numIntersectionOfWalls 1 position 0.4 0.5 0.6 orientation 0.796009183964741 0 -0.503627182882345 0.335751455254897
InfiniteWall id 4 indSpecies 0 position 0.04 0.08 0.12 orientation 0.796009183964741 0 -0.503627182882345 0.335751455254897 velocity 0 0 0 angularVelocity 0 0 0 force 0 0 0 torque 0 0 0
InfiniteWallWithHole id 5 indSpecies 0 position 0 0 0 orientation 1 0 0 0 velocity 0 0 0 angularVelocity 0 0 0 force 0 0 0 torque 0 0 0 normal 0.267261241912424 0.534522483824849 0.801783725737273 factor 2.67261241912424 position 1.0690449676497 holeRadius 0.5
Screw id 6 indSpecies 0 position 0 0 0 orientation 1 0 0 0 velocity 0 0 0 angularVelocity 0 0 0 force 0 0 0 torque 0 0 0 start 0.1 0.2 0.3 Length 0.4 Radius 0.5 Revolutions 0.6 Omega 0.7 Thickness 0.8 Offset 0 ScrewType 2
Boundaries 8
AngledPeriodicBoundary id 0 normal_left 0.267261241912424 0.534522483824849 0.801783725737273 normal_right 0.455842305838552 0.56980288229819 0.683763458757828 origin 0.7 0.8 0.9
ChuteInsertionBoundary id 1 maxFailed 13 massInserted 0 volumeInserted 0 numberOfParticlesInserted 0 isActivated 1 psdCount 1 psd 0 initialVolume 0 samplingInterval 0 variableCumulativeVolumeFlowRate 0 particleToCopy 1 BaseParticle id 0 indSpecies 0 position 0 0 0 orientation 1 0 0 0 velocity 0 0 0 angularVelocity 0 0 0 force 0 0 0 torque 0 0 0 radius 1 invMass 1 timeStamp 0 posMin 0.1 0.2 0.3 posMax 0.4 0.5 0.6 fixedParticleRadius 0.55 inflowVelocity 1.1 inflowVelocityVariance 1.2
CubeInsertionBoundary id 2 maxFailed 13 massInserted 0 volumeInserted 0 numberOfParticlesInserted 0 isActivated 1 psdCount 2 psd 50 0.1 0 0.118367346938776 0.0204081632653061 0.136734693877551 0.0408163265306122 0.155102040816327 0.0612244897959184 0.173469387755102 0.0816326530612245 0.191836734693878 0.102040816326531 0.210204081632653 0.122448979591837 0.228571428571429 0.142857142857143 0.246938775510204 0.163265306122449 0.26530612244898 0.183673469387755 0.283673469387755 0.204081632653061 0.302040816326531 0.224489795918367 0.320408163265306 0.244897959183673 0.338775510204082 0.26530612244898 0.357142857142857 0.285714285714286 0.375510204081633 0.306122448979592 0.393877551020408 0.326530612244898 0.412244897959184 0.346938775510204 0.430612244897959 0.36734693877551 0.448979591836735 0.387755102040816 0.46734693877551 0.408163265306123 0.485714285714286 0.428571428571429 0.504081632653061 0.448979591836735 0.522448979591837 0.469387755102041 0.540816326530612 0.489795918367347 0.559183673469388 0.510204081632653 0.577551020408163 0.530612244897959 0.595918367346939 0.551020408163266 0.614285714285714 0.571428571428572 0.63265306122449 0.591836734693878 0.651020408163265 0.612244897959184 0.669387755102041 0.63265306122449 0.687755102040816 0.653061224489796 0.706122448979592 0.673469387755102 0.724489795918367 0.693877551020409 0.742857142857143 0.714285714285715 0.761224489795918 0.734693877551021 0.779591836734694 0.755102040816327 0.797959183673469 0.775510204081633 0.816326530612245 0.795918367346939 0.83469387755102 0.816326530612245 0.853061224489796 0.836734693877552 0.871428571428571 0.857142857142858 0.889795918367347 0.877551020408164 0.908163265306122 0.89795918367347 0.926530612244898 0.918367346938776 0.944897959183673 0.938775510204082 0.963265306122449 0.959183673469388 0.981632653061224 0.979591836734695 1 1 psd 50 0.01 0 0.0118367346938776 0.0204081632653061 0.0136734693877551 0.0408163265306122 0.0155102040816327 0.0612244897959184 0.0173469387755102 0.0816326530612245 0.0191836734693878 0.102040816326531 0.0210204081632653 0.122448979591837 0.0228571428571429 0.142857142857143 0.0246938775510204 0.163265306122449 0.026530612244898 0.183673469387755 0.0283673469387755 0.204081632653061 0.0302040816326531 0.224489795918367 0.0320408163265306 0.244897959183673 0.0338775510204082 0.26530612244898 0.0357142857142857 0.285714285714286 0.0375510204081633 0.306122448979592 0.0393877551020408 0.326530612244898 0.0412244897959184 0.346938775510204 0.0430612244897959 0.36734693877551 0.0448979591836735 0.387755102040816 0.046734693877551 0.408163265306123 0.0485714285714286 0.428571428571429 0.0504081632653061 0.448979591836735 0.0522448979591837 0.469387755102041 0.0540816326530612 0.489795918367347 0.0559183673469388 0.510204081632653 0.0577551020408164 0.530612244897959 0.0595918367346939 0.551020408163266 0.0614285714285715 0.571428571428572 0.063265306122449 0.591836734693878 0.0651020408163265 0.612244897959184 0.0669387755102041 0.63265306122449 0.0687755102040816 0.653061224489796 0.0706122448979592 0.673469387755102 0.0724489795918367 0.693877551020409 0.0742857142857143 0.714285714285715 0.0761224489795918 0.734693877551021 0.0779591836734694 0.755102040816327 0.0797959183673469 0.775510204081633 0.0816326530612245 0.795918367346939 0.083469387755102 0.816326530612245 0.0853061224489795 0.836734693877552 0.0871428571428571 0.857142857142858 0.0889795918367346 0.877551020408164 0.0908163265306122 0.89795918367347 0.0926530612244897 0.918367346938776 0.0944897959183673 0.938775510204082 0.0963265306122448 0.959183673469388 0.0981632653061224 0.979591836734695 0.1 1 psdRatio 0.5 0.5 initialVolume 0 samplingInterval 0 variableCumulativeVolumeFlowRate 0 particleToCopy 2 BaseParticle id 0 indSpecies 1 position 0 0 0 orientation 1 0 0 0 velocity 0 0 0 angularVelocity 0 0 0 force 0 0 0 torque 0 0 0 radius 1 invMass 1 timeStamp 0 BaseParticle id 0 indSpecies 0 position 0 0 0 orientation 1 0 0 0 velocity 0 0 0 angularVelocity 0 0 0 force 0 0 0 torque 0 0 0 radius 1 invMass 1 timeStamp 0 posMin 0.1 0.2 0.3 posMax 0.4 0.5 0.6 velMin 0.11 0.22 0.33 velMax 0.44 0.55 0.66
HopperInsertionBoundary id 3 maxFailed 13 massInserted 0 volumeInserted 0 numberOfParticlesInserted 0 isActivated 1 psdCount 1 psd 0 initialVolume 0 samplingInterval 0 variableCumulativeVolumeFlowRate 0 particleToCopy 1 BaseParticle id 0 indSpecies 0 position 0 0 0 orientation 1 0 0 0 velocity 0 0 0 angularVelocity 0 0 0 force 0 0 0 torque 0 0 0 radius 1 invMass 1 timeStamp 0 yMin 0.2 yMax 0.3 chuteAngle 3.1 fixedParticleRadius 0.69 isHopperCentred_ 0 hopperDim 3 hopperAngle 0.11 hopperLength 0.21 hopperExitLength 0.09 hopperHeight 2.31 lift 0.001 fillPercent 30
PeriodicBoundary id 4 normal 0.267261241912424 0.534522483824849 0.801783725737273 scaleFactor 2.51428571428571 distanceLeft 2.93987366103667 distanceRight 5.87974732207334 shift 1.00571428571429 1.25714285714286 1.50857142857143
CircularPeriodicBoundary id 5 innerRadius 0.3
DeletionBoundary id 6 normal 0.267261241912424 0.534522483824849 0.801783725737273 scaleFactor 2.67261241912424 distance 8.39200299605013 numberOfParticlesDeleted 0 massDeleted 0 volumeDeleted 0 isActivated 1 trackOutflow 0
LeesEdwardsBoundary id 7 left 0.3 right 0.4 down 0.5 up 0.6 shift 0.1 vel 0.2
Particles 2
BaseParticle id 0 indSpecies 0 position 0 0 0 orientation 1 0 0 0 velocity 0 0 0 angularVelocity 0 0 0 force 0 0 0 torque 0 0 0 radius 1 invMass 0.238732414637843 timeStamp 0
BaseParticle id 1 indSpecies 0 position 0 0 0 orientation 1 0 0 0 velocity 0 0 0 angularVelocity 0 0 0 force 0 0 0 torque 0 0 0 radius 1 invMass 0.238732414637843 timeStamp 0
Interactions 0
