MercuryDPM 0.14 name SetDistributionPhiNormalSelfTest revision 6e3ec7f repository https://bitbucket.org/mercurydpm/mercurydpm.git
dataFile    fileType ONE_FILE saveCount 1000 counter 2 lastSavedTimeStep 1000
fStatFile   fileType ONE_FILE saveCount 1000 counter 2 lastSavedTimeStep 1000
eneFile     fileType ONE_FILE saveCount 1000 counter 2 lastSavedTimeStep 1000
restartFile fileType ONE_FILE saveCount 1000 counter 2 lastSavedTimeStep 1000
statFile    fileType ONE_FILE saveCount 1000 counter 0
interactionFile fileType NO_FILE saveCount 0 counter 0
xMin 0 xMax 0.005 yMin 0 yMax 0.005 zMin 0 zMax 0.005
timeStep 1e-06 time 0.00100000000000002 ntimeSteps 1000 timeMax 0.001
systemDimensions 3 particleDimensions 3 gravity 0 0 -9.8 writeVTK 0 NO_FILE NO_FILE 0 0 0 0 0 random  0 1103515245 12345 1073741824 607 273 784607267
Species 1
LinearViscoelasticFrictionSpecies id 0 density 2650 stiffness 1500 dissipation 0.002 slidingStiffness 435 slidingDissipation 0.00058 slidingFrictionCoefficient 0.4 slidingFrictionCoefficientStatic 0.4 rollingStiffness 600 rollingDissipation 0.0008 rollingFrictionCoefficient 0.5 rollingFrictionCoefficientStatic 0.5 torsionStiffness 0 torsionDissipation 0 torsionFrictionCoefficient 0 torsionFrictionCoefficientStatic 0
Walls 5
InfiniteWall id 0 indSpecies 0 position 0 0 0 orientation 0.707106781186548 0 0.707106781186548 0 velocity 0 0 0 angularVelocity 0 0 0 force 0 0 0 torque 0 0 0
InfiniteWall id 1 indSpecies 0 position 0 0 0 orientation 0.707106781186548 0 0 -0.707106781186548 velocity 0 0 0 angularVelocity 0 0 0 force 0 0 0 torque 0 0 0
InfiniteWall id 2 indSpecies 0 position 0 0.005 0 orientation 0.707106781186548 0 0 0.707106781186548 velocity 0 0 0 angularVelocity 0 0 0 force 0 0 0 torque 0 0 0
InfiniteWall id 3 indSpecies 0 position 0 0 0 orientation 0 0 1 0 velocity 0 0 0 angularVelocity 0 0 0 force 0 0 0 torque 0 0 0
InfiniteWall id 4 indSpecies 0 position 0.005 0 0 orientation 1 0 0 0 velocity 0 0 0 angularVelocity 0 0 0 force 0 0 0 torque 0 0 0
Boundaries 1
CubeInsertionBoundary id 0 maxFailed 1 volumeFlowRate 0 massInserted 3.0771507245816e-05 volumeInserted 1.1611889526723e-08 numberOfParticlesInserted 4552 isActivated 1 psdCount 1 psd 100 1.04291946475406e-05 0 1.0896704474814e-05 5.67292325980273e-09 1.13642143020874e-05 1.65903072292383e-08 1.18517820688141e-05 3.80314670278296e-08 1.23602683364449e-05 7.87864481398472e-08 1.28905705877705e-05 1.55840323678372e-07 1.34436248109875e-05 2.98690168437676e-07 1.40204071517255e-05 5.60348631064606e-07 1.46219356359526e-05 1.03195801901669e-06 1.52492719668008e-05 1.87024901718189e-06 1.5903523398481e-05 3.33793207938214e-06 1.65858446905971e-05 5.87072050663481e-06 1.72974401463063e-05 1.01771847278493e-05 1.80395657379256e-05 1.73932256344046e-05 1.88135313237334e-05 2.93076730391938e-05 1.96207029598818e-05 4.86933576950878e-05 2.04625053114972e-05 7.97746553590741e-05 2.13404241672274e-05 0.000128881405102832 2.22560090616715e-05 0.00020533518964671 2.32108760103224e-05 0.000322629733758557 2.42067103618487e-05 0.00049995649135273 2.52452697727497e-05 0.000764130810264188 2.6328387309635e-05 0.00115194644758267 2.74579746846036e-05 0.00171296785083654 2.86360256294325e-05 0.00251271420074774 2.98646194145311e-05 0.00363613976375922 3.11459245188719e-05 0.00519122862856126 3.24822024573755e-05 0.00731244631071446 3.38758117725043e-05 0.0101636892201379 3.53292121971111e-05 0.0139403004750662 3.68449689958893e-05 0.0188696469566895 3.84257574930881e-05 0.025209737848552 4.00743677944838e-05 0.033245381145078 4.17937097119408e-05 0.043281479151262 4.3586817899256e-05 0.0556332204694912 4.54568572083495e-05 0.0706131774573958 4.74071282752565e-05 0.0885156086996385 4.94410733457794e-05 0.109598615914811 5.15622823510819e-05 0.134065135069842 5.37744992439501e-05 0.162044053560315 5.60816286069018e-05 0.193572949405204 5.84877425438103e-05 0.228584046546914 6.0997087867203e-05 0.266894897368167 6.3614093593924e-05 0.308205069739914 6.63433787623883e-05 0.352099695472782 6.91897605852252e-05 0.398060205678545 7.21582629517022e-05 0.445481945126745 7.52541252949335e-05 0.493697734447897 7.8482811839527e-05 0.542005866472469 8.18500212459887e-05 0.589700595393578 8.53616966689094e-05 0.636102916230263 8.90240362466858e-05 0.68058941345795 9.28435040412896e-05 0.722617141450499 9.68268414473947e-05 0.761742904479846 0.000100981079090998 0.797635836290977 0.00010531354923854 0.830082815392969 0.000109831898738414 0.858986873675851 0.00011454410251773 0.884359336019462 0.000119458477658124 0.906306865557924 0.000124583698075487 0.925014889672834 0.000129928809829502 0.940728987244101 0.000135503247090017 0.953735780590539 0.000141316848788444 0.964344679013171 0.000147379875983557 0.972871548809881 0.000153703029972352 0.979625038418454 0.000160297471177935 0.98489595510916 0.000167174838847763 0.988949764600741 0.000174347271597024 0.992022037988364 0.000181827428833398 0.994316472374435 0.000189628513101026 0.996005010262119 0.000197764293383117 0.997229528363087 0.000206249129404327 0.998104590846278 0.0002150979969758 0.998720805582739 0.000224326514427607 0.999148412468441 0.000233950970175241 0.999440811740099 0.000243988351468812 0.999637839659676 0.000254456374375696 0.99976866679343 0.000265373515049553 0.999854269687509 0.000276759042340901 0.999909464289785 0.000288633051806808 0.999944533582363 0.000301016501179734 0.999966490545895 0.000313931247358108 0.999980037578462 0.000327400084983954 0.999988273718362 0.000341446786675637 0.999993208205948 0.000356096144986743 0.999996121251755 0.000371374016165158 0.999997816086064 0.000387307365789578 0.999998787560183 0.000403924316363993 0.999999336496123 0.000421254196954159 0.999999641942273 0.000439327594953657 0.999999809630502 0.000458176410070919 0.999999900143177 0.000477833910632496 0.99999994848879 0.000498334792301949 0.999999973734492 0.000519715239318007 0.999999986923351 0.000542012988360068 0.999999993515928 0.000565267395153776 0.999999996956428 0.000589519503934227 0.999999998530695 0.000614812119889409 0.999999999426489 0.000641189884711739 0.999999999729655 0.000668699355391051 1 initialVolume 3.125e-08 samplingInterval 0 variableCumulativeVolumeFlowRate 0 particleToCopy 1 BaseParticle id 0 indSpecies 0 position 0 0 0 orientation 1 0 0 0 velocity 0 0 0 angularVelocity 0 0 0 force 0 0 0 torque 0 0 0 radius 1 invMass 1 posMin 0 0 0 posMax 0.005 0.005 0.005 velMin -0.005 0 -0.005 velMax 0.005 0 0
Particles 4552
BaseParticle id 0 indSpecies 0 position 0.00231539474171738 0.00225775513122067 0.00422842625099565 orientation 1 0 0 0 velocity 0.00130600097933225 0 -0.014584668041648 angularVelocity 0 0 0 force 0 0 -6.70985237454192e-08 torque 0 0 0 radius 8.51237606883793e-05 invMass 146053883.945085
BaseParticle id 1 indSpecies 0 position 0.00206610919759738 0.000496575072876573 0.00384616505326727 orientation 1 0 0 0 velocity -0.00282938829825317 0 -0.0141268060691017 angularVelocity 0 0 0 force 0 0 -1.35574012882419e-07 torque 0 0 0 radius 0.000107614790368698 invMass 72285239.5650436
BaseParticle id 2 indSpecies 0 position 0.00297748076360432 0.00463322018307334 0.000355633629942344 orientation 1 0 0 0 velocity -0.00112599694530853 0 -0.0128402251398359 angularVelocity 0 0 0 force 0 0 -1.27651367503657e-07 torque 0 0 0 radius 0.000105476320432309 invMass 76771602.150829
BaseParticle id 3 indSpecies 0 position 0.000967993191618503 0.00401537888309417 0.00106310877926485 orientation 1 0 0 0 velocity 0.000770919885699712 0 -0.0141242122798545 angularVelocity 0 0 0 force 0 0 -1.33817503655645e-07 torque 0 0 0 radius 0.000107148012990128 invMass 73234066.7870961
BaseParticle id 4 indSpecies 0 position 0.00146306221493217 0.00325811825389218 0.00152503775611547 orientation 1 0 0 0 velocity 0.004859161777553 0 -0.0112385921402085 angularVelocity 0 0 0 force 0 0 -6.17497843126304e-08 torque 0 0 0 radius 8.27989752846889e-05 invMass 158705007.784059
BaseParticle id 5 indSpecies 0 position 0.00104006147891469 0.00484919595080503 0.00268049264815834 orientation 1 0 0 0 velocity -0.00159955306295347 0 -0.0138013891095826 angularVelocity 0 0 0 force 0 0 -3.29977418512783e-08 torque 0 0 0 radius 6.71905022150603e-05 invMass 296990019.625248
BaseParticle id 6 indSpecies 0 position 0.00482782211437163 0.000935995517358188 0.00374802752046689 orientation 1 0 0 0 velocity -0.00017131314131309 0 -0.0140069960067527 angularVelocity 0 0 0 force 0 0 -2.55180287527541e-08 torque 0 0 0 radius 6.16730634149435e-05 invMass 384042203.845479
BaseParticle id 7 indSpecies 0 position 0.000639248686650965 0.00153083291227852 0.00295063660926518 orientation 1 0 0 0 velocity -0.00425136501970574 0 -0.0133975597998693 angularVelocity 0 0 0 force 0 0 -1.01272054322382e-08 torque 0 0 0 radius 4.53220647544789e-05 invMass 967690451.780842
BaseParticle id 8 indSpecies 0 position 0.00385909391409676 0.00423438857846485 0.00393637590853031 orientation 1 0 0 0 velocity -0.00459699315056485 0 -0.0102788698531493 angularVelocity 0 0 0 force 0 0 -2.75247750300769e-08 torque 0 0 0 radius 6.32491081907047e-05 invMass 356042873.71255
BaseParticle id 9 indSpecies 0 position 0.00445314513267789 0.00305611482536782 0.00339939926444358 orientation 1 0 0 0 velocity 0.00131496571347586 0 -0.0103758493435403 angularVelocity 0 0 0 force 0 0 -4.26456497641698e-08 torque 0 0 0 radius 7.31876932190287e-05 invMass 229800696.066163
BaseParticle id 10 indSpecies 0 position 0.00447751280356183 0.00212625814403756 0.00392918768429302 orientation 1 0 0 0 velocity -0.00127752551224313 0 -0.0118965109839678 angularVelocity 0 0 0 force 0 0 -1.20166264034049e-07 torque 0 0 0 radius 0.000103373050758357 invMass 81553671.3134661
BaseParticle id 11 indSpecies 0 position 0.00219962809058095 0.000274647478689768 0.000146581896290314 orientation 1 0 0 0 velocity -0.00270282554654141 0 -0.014315481126069 angularVelocity 0 0 0 force 0 0 -4.23866686283392e-08 torque 0 0 0 radius 7.30392393844688e-05 invMass 231204770.677539
BaseParticle id 12 indSpecies 0 position 0.0040826566980511 0.00386176943419336 0.0022690033491901 orientation 1 0 0 0 velocity -0.000338125270476448 0 -0.0122665954640057 angularVelocity 0 0 0 force 0 0 -3.22369312310115e-08 torque 0 0 0 radius 6.66700904949024e-05 invMass 303999159.528327
BaseParticle id 13 indSpecies 0 position 0.00405302885075163 0.00483856315273925 0.00290761630148855 orientation 1 0 0 0 velocity -0.00046902208079675 0 -0.0131620058388415 angularVelocity 0 0 0 force 0 0 -1.40468698656516e-07 torque 0 0 0 radius 0.000108894597342291 invMass 69766432.6197228
BaseParticle id 14 indSpecies 0 position 0.0012845786813781 0.0016612414053279 0.000480413013918697 orientation 0.99999999967369 -4.0738057266664e-06 -1.31455631296731e-05 -2.15225134298945e-05 velocity -0.00163365048093148 0.000911914904526252 -0.0127479184391496 angularVelocity -4.07380572733106 -13.1455631318179 -21.5225134334061 force 0 0 -2.92288594557094e-08 torque 0 0 0 radius 6.45283316384207e-05 invMass 335285063.546526
BaseParticle id 15 indSpecies 0 position 0.00345416168825857 0.0024133512774358 0.00380144869450863 orientation 1 0 0 0 velocity -0.000657356189882983 0 -0.0131158359879092 angularVelocity 0 0 0 force 0 0 -7.42094998463373e-08 torque 0 0 0 radius 8.8030462153497e-05 invMass 132058564.203942
BaseParticle id 16 indSpecies 0 position 0.00215936280065391 0.00162313309812626 0.000248345842426682 orientation 1 0 0 0 velocity 0.004576988434813 0 -0.00986739945150034 angularVelocity 0 0 0 force 0 0 -3.44924586482598e-08 torque 0 0 0 radius 6.81900796602477e-05 invMass 284120076.795234
BaseParticle id 17 indSpecies 0 position 0.00222554563096259 0.00131321385846174 0.00424121607234621 orientation 1 0 0 0 velocity 0.00384841543729565 0 -0.00987171330972227 angularVelocity 0 0 0 force 0 0 -2.94951924788704e-07 torque 0 0 0 radius 0.000139443055935197 invMass 33225753.6784019
BaseParticle id 18 indSpecies 0 position 0.00312966006260767 0.00378844990973505 0.00419733263297547 orientation 1 0 0 0 velocity 0.00101846719531485 0 -0.0126875650392572 angularVelocity 0 0 0 force 0 0 -1.6451001105584e-08 torque 0 0 0 radius 5.32775106058172e-05 invMass 595708427.535973
BaseParticle id 19 indSpecies 0 position 0.000280778722570314 0.000455661513418274 0.00221717421360303 orientation 1 0 0 0 velocity -0.00464896558816641 0 -0.0116201938627641 angularVelocity 0 0 0 force 0 0 -1.54815968936039e-07 torque 0 0 0 radius 0.000112482527234208 invMass 63300963.5075101
BaseParticle id 20 indSpecies 0 position 0.00126092504692373 0.00373747692561012 0.00422146556538649 orientation 1 0 0 0 velocity -0.000673464550009495 0 -0.0098037289876996 angularVelocity 0 0 0 force 0 0 -4.31026409562387e-08 torque 0 0 0 radius 7.34481915962974e-05 invMass 227364258.490559
BaseParticle id 21 indSpecies 0 position 0.00391896719818743 0.000609593879795081 0.000368918003542608 orientation 1 0 0 0 velocity -0.000664519168748968 0 -0.0138098097324823 angularVelocity 0 0 0 force 0 0 -1.25485118297894e-07 torque 0 0 0 radius 0.000104876267312523 invMass 78096910.0792926
BaseParticle id 22 indSpecies 0 position 0.0022040149741373 0.00236289265811174 0.00308414275671623 orientation 1 0 0 0 velocity -0.00180951533204921 0 -0.0128082401186694 angularVelocity 0 0 0 force 0 0 -4.90712824049747e-08 torque 0 0 0 radius 7.66929805537735e-05 invMass 199709474.048848
BaseParticle id 23 indSpecies 0 position 0.00432814700286577 0.000511779919721391 0.00415632207913955 orientation 1 0 0 0 velocity 0.00384476968194845 0 -0.0107392800918955 angularVelocity 0 0 0 force 0 0 -6.7998044073929e-08 torque 0 0 0 radius 8.55024620736133e-05 invMass 144121792.523109
BaseParticle id 24 indSpecies 0 position 0.00267105270475316 0.000418549230863761 0.00260207368081082 orientation 1 0 0 0 velocity -0.00153557204964052 0 -0.0129264447531959 angularVelocity 0 0 0 force 0 0 -7.72181131700185e-08 torque 0 0 0 radius 8.92043861103496e-05 invMass 126913227.96793
BaseParticle id 25 indSpecies 0 position 0.00369536621403866 0.00279714190140633 0.00349746120848512 orientation 1 0 0 0 velocity 0.00462590691668363 0 -0.0124284640118757 angularVelocity 0 0 0 force 0 0 -5.36852813293046e-08 torque 0 0 0 radius 7.9025070409371e-05 invMass 182545378.49745
BaseParticle id 26 indSpecies 0 position 0.0021814169432584 0.0029854910792918 0.00287240380839002 orientation 1 0 0 0 velocity -0.00232815285462127 0 -0.0108951504753557 angularVelocity 0 0 0 force 0 0 -4.69354565836501e-08 torque 0 0 0 radius 7.55637488721688e-05 invMass 208797372.249572
BaseParticle id 27 indSpecies 0 position 0.00440844907876792 0.000293692522408726 0.0012544224041931 orientation 1 0 0 0 velocity 0.000269812498921702 0 -0.0116083354488479 angularVelocity 0 0 0 force 0 0 -8.79580123640535e-08 torque 0 0 0 radius 9.31618882893548e-05 invMass 111416796.908033
BaseParticle id 28 indSpecies 0 position 0.0013497090193933 0.000770859359045644 0.000383788597787841 orientation 1 0 0 0 velocity -0.00120885418149749 0 -0.00990078226212151 angularVelocity 0 0 0 force 0 0 -1.18533504864931e-08 torque 0 0 0 radius 4.77632117423823e-05 invMass 826770457.109751
BaseParticle id 29 indSpecies 0 position 0.00169176318296806 0.00163815077707344 0.00292301694881464 orientation 1 0 0 0 velocity 0.00156877283326464 0 -0.0133531701301272 angularVelocity 0 0 0 force 0 0 -4.31035020433834e-08 torque 0 0 0 radius 7.34486806991383e-05 invMass 227359716.390013
BaseParticle id 30 indSpecies 0 position 0.0011641337627958 0.00379143993948452 0.00261119000962271 orientation 1 0 0 0 velocity 0.00419134873040826 0 -0.0134473481649635 angularVelocity 0 0 0 force 0 0 -1.7420634284055e-08 torque 0 0 0 radius 5.43043310535623e-05 invMass 562551273.403969
BaseParticle id 31 indSpecies 0 position 0.000755588902706107 0.0027210255593797 0.00459868515754582 orientation 1 0 0 0 velocity -0.0030628744437705 0 -0.0129555303157333 angularVelocity 0 0 0 force 0 0 -9.43643256977197e-08 torque 0 0 0 radius 9.53708735677231e-05 invMass 103852805.893963
BaseParticle id 32 indSpecies 0 position 0.00270049271863547 0.00373580021435786 0.00265016598367455 orientation 1 0 0 0 velocity 0.00144646338518107 0 -0.0124071442779629 angularVelocity 0 0 0 force 0 0 -2.00491092944272e-08 torque 0 0 0 radius 5.69086357829404e-05 invMass 488799769.410403
BaseParticle id 33 indSpecies 0 position 0.00452249537551048 0.00418089360540649 0.00057636706498276 orientation 1 0 0 0 velocity -0.0049622451048696 0 -0.0145586957926859 angularVelocity 0 0 0 force 0 0 -1.68297994665642e-08 torque 0 0 0 radius 5.36833316433112e-05 invMass 582300461.717899
BaseParticle id 34 indSpecies 0 position 0.000796853487897348 0.00485364764476787 0.00484285506720289 orientation 1 0 0 0 velocity 0.004241394354737 0 -0.010077441134472 angularVelocity 0 0 0 force 0 0 -3.03631917950792e-08 torque 0 0 0 radius 6.53525123717407e-05 invMass 322759216.690395
BaseParticle id 35 indSpecies 0 position 0.00284400422446889 0.00294103587238022 0.00441877604200367 orientation 1 0 0 0 velocity -0.00182114928325531 0 -0.0109127521460367 angularVelocity 0 0 0 force 0 0 -1.57774829624519e-08 torque 0 0 0 radius 5.25402804912887e-05 invMass 621138366.830919
BaseParticle id 36 indSpecies 0 position 0.000592213633820298 0.00208823026894757 0.00399191721134308 orientation 1 0 0 0 velocity 0.00369167595292285 0 -0.0133242062495408 angularVelocity 0 0 0 force 0 0 -1.96328426063872e-08 torque 0 0 0 radius 5.65120257344351e-05 invMass 499163579.950044
BaseParticle id 37 indSpecies 0 position 0.00229081606065923 0.000117533844786198 0.00477857698000459 orientation 1 0 0 0 velocity 0.00059225935899442 0 -0.0109096096960348 angularVelocity 0 0 0 force 0 0 -3.28058386407241e-08 torque 0 0 0 radius 6.70599968205069e-05 invMass 298727312.150911
BaseParticle id 38 indSpecies 0 position 0.000767138413942396 0.000520140211544799 0.0036422633947769 orientation 1 0 0 0 velocity -0.00278901221436541 0 -0.0132309780799107 angularVelocity 0 0 0 force 0 0 -1.67066616409457e-07 torque 0 0 0 radius 0.000115374466547686 invMass 58659235.5230418
BaseParticle id 39 indSpecies 0 position 0.000157871292150209 0.00209164873036402 0.00342159424037556 orientation 1 0 0 0 velocity 0.00298690657318858 0 -0.0133672602816401 angularVelocity 0 0 0 force 0 0 -4.58326646462062e-08 torque 0 0 0 radius 7.49672389616787e-05 invMass 213821301.372038
BaseParticle id 40 indSpecies 0 position 0.00114584551786449 0.00467552376009941 0.00242801303338896 orientation 1 0 0 0 velocity 0.000942940818199013 0 -0.0116499335955905 angularVelocity 0 0 0 force 0 0 -6.35447939648092e-08 torque 0 0 0 radius 8.35936212204478e-05 invMass 154221917.934413
BaseParticle id 41 indSpecies 0 position 0.000642827315776458 0.00219732518568884 0.0030189827053293 orientation 1 0 0 0 velocity 0.00277828738300289 0 -0.0130822461209968 angularVelocity 0 0 0 force 0 0 -1.67309808301801e-07 torque 0 0 0 radius 0.000115430421336058 invMass 58573971.8398478
BaseParticle id 42 indSpecies 0 position 0.00342371846585636 0.00446915957660492 0.00484822497329108 orientation 1 0 0 0 velocity 0.00293951490154535 0 -0.00985483475048388 angularVelocity 0 0 0 force 0 0 -1.23357530815929e-08 torque 0 0 0 radius 4.84025641927603e-05 invMass 794438729.048759
BaseParticle id 43 indSpecies 0 position 0.00416843581974129 0.00138032181991234 0.00269146509050267 orientation 1 0 0 0 velocity -0.00107003325031136 0 -0.0116200151093659 angularVelocity 0 0 0 force 0 0 -3.21414625840478e-07 torque 0 0 0 radius 0.000143494424048345 invMass 30490211.745572
BaseParticle id 44 indSpecies 0 position 0.000848210799191247 0.00480722936353904 0.00395070369588756 orientation 1 0 0 0 velocity -0.000293248672696529 0 -0.0105207624375236 angularVelocity 0 0 0 force 0 0 -7.3179934245723e-08 torque 0 0 0 radius 8.76214599919171e-05 invMass 133916490.920771
BaseParticle id 45 indSpecies 0 position 0.00301760269899084 0.00146234908470665 0.000122342943835877 orientation 1 0 0 0 velocity 0.000196821498501278 0 -0.00985765019916028 angularVelocity 0 0 0 force 0 0 -1.85294779177874e-08 torque 0 0 0 radius 5.54328925721885e-05 invMass 528887000.674339
BaseParticle id 46 indSpecies 0 position 0.000948695387251203 0.00121323296687265 0.00105993125288799 orientation 1 0 0 0 velocity -0.00206073859980261 0 -0.0112055862125498 angularVelocity 0 0 0 force 0 0 -3.5449366097462e-08 torque 0 0 0 radius 6.88149245769053e-05 invMass 276450641.544804
BaseParticle id 47 indSpecies 0 position 0.000833681548818028 0.00194033127563043 0.000131568364566205 orientation 1 0 0 0 velocity 0.00363741846882047 0 -0.0147670858309523 angularVelocity 0 0 0 force 0 0 -9.02644694402884e-08 torque 0 0 0 radius 9.39691773706065e-05 invMass 108569851.025191
BaseParticle id 48 indSpecies 0 position 0.00348630143995872 0.00459235453084823 0.00494633521492232 orientation 1 0 0 0 velocity -0.0042206945743219 0 -0.0142834741163765 angularVelocity 0 0 0 force 0 0 -6.44521803747197e-08 torque 0 0 0 radius 8.39896332689137e-05 invMass 152050713.3044
BaseParticle id 49 indSpecies 0 position 0.000914736971940943 0.00456019035581482 0.00256018257807901 orientation 1 0 0 0 velocity -0.00118043444475118 0 -0.0137994539470029 angularVelocity 0 0 0 force 0 0 -3.02847215922399e-08 torque 0 0 0 radius 6.52961651003366e-05 invMass 323595512.349406
BaseParticle id 50 indSpecies 0 position 0.00165611541341095 0.000360147505663198 0.00345196197783103 orientation 1 0 0 0 velocity -0.00160467028002751 0 -0.00995060708383785 angularVelocity 0 0 0 force 0 0 -7.44613184652248e-09 torque 0 0 0 radius 4.09062863653806e-05 invMass 1316119590.94934
BaseParticle id 51 indSpecies 0 position 0.00336398547775338 0.00275909910187209 0.00434815097949014 orientation 1 0 0 0 velocity 0.00346690296338228 0 -0.0128335779320678 angularVelocity 0 0 0 force 0 0 -5.9954009211617e-08 torque 0 0 0 radius 8.19884275377556e-05 invMass 163458626.51836
BaseParticle id 52 indSpecies 0 position 0.00105155465937793 0.00214794083298376 0.0018937273834988 orientation 1 0 0 0 velocity -1.55462371040638e-05 0 -0.0130672581233001 angularVelocity 0 0 0 force 0 0 -2.88757011937186e-07 torque 0 0 0 radius 0.000138459893549459 invMass 33938569.7831359
BaseParticle id 53 indSpecies 0 position 0.00447650346196744 0.000163215151835964 0.00356405173318125 orientation 1 0 0 0 velocity -0.0026810046586385 0 -0.0133844153458941 angularVelocity 0 0 0 force 0 0 -7.32520928511736e-08 torque 0 0 0 radius 8.76502500577081e-05 invMass 133784573.498954
BaseParticle id 54 indSpecies 0 position 0.00214687916082517 0.00164502492021301 0.00468263518102096 orientation 1 0 0 0 velocity -0.00268878774932698 0 -0.0116902401143386 angularVelocity 0 0 0 force 0 0 -5.98238067684457e-08 torque 0 0 0 radius 8.192903295195e-05 invMass 163814383.092201
BaseParticle id 55 indSpecies 0 position 0.00268336156257217 0.00406618900684063 0.00241248774815471 orientation 1 0 0 0 velocity -0.0039835516093452 0 -0.0102164688332393 angularVelocity 0 0 0 force 0 0 -6.89740118379921e-07 torque 0 0 0 radius 0.000185086599360213 invMass 14208249.9463979
BaseParticle id 56 indSpecies 0 position 0.00478113779006931 0.00482908223305914 0.00363371649615979 orientation 1 0 0 0 velocity -0.00490983072676712 0 -0.0123958199402898 angularVelocity 0 0 0 force 0 0 -5.3709667398256e-08 torque 0 0 0 radius 7.90370340801743e-05 invMass 182462496.506136
BaseParticle id 57 indSpecies 0 position 0.00403098201802491 0.00327077019189413 0.00314018873310026 orientation 1 0 0 0 velocity 0.0027991357466214 0 -0.0117376536208396 angularVelocity 0 0 0 force 0 0 -3.91610545783751e-08 torque 0 0 0 radius 7.11373920961031e-05 invMass 250248623.4222
BaseParticle id 58 indSpecies 0 position 0.0039674698306644 0.00212148364435743 0.000876968052302765 orientation 1 0 0 0 velocity 0.00340283417291675 0 -0.0136455403281495 angularVelocity 0 0 0 force 0 0 -4.29796038880793e-08 torque 0 0 0 radius 7.33782387100365e-05 invMass 228015130.747124
BaseParticle id 59 indSpecies 0 position 0.00459641610626432 0.00110161697389407 0.00124609035574603 orientation 1 0 0 0 velocity -0.0047803152540882 0 -0.0113108286063627 angularVelocity 0 0 0 force 0 0 -6.17588586512931e-08 torque 0 0 0 radius 8.2803030948741e-05 invMass 158681688.975721
BaseParticle id 60 indSpecies 0 position 0.00134830694070247 0.00213297779473199 0.00105681389385862 orientation 1 0 0 0 velocity 0.00440962143297342 0 -0.0122559845520204 angularVelocity 0 0 0 force 0 0 -2.91772262029226e-08 torque 0 0 0 radius 6.44903124620939e-05 invMass 335878398.167211
BaseParticle id 61 indSpecies 0 position 0.00218525920878087 0.0022395500566442 0.00188274045003109 orientation 1 0 0 0 velocity 0.00284028301216636 0 -0.0101170444860505 angularVelocity 0 0 0 force 0 0 -6.88119062231744e-08 torque 0 0 0 radius 8.5842233716265e-05 invMass 142417214.372991
BaseParticle id 62 indSpecies 0 position 0.00401920157008109 0.00217280473823398 0.00055308809857619 orientation 1 0 0 0 velocity -0.00366537530099472 0 -0.0117569249806006 angularVelocity 0 0 0 force 0 0 -3.09685622298022e-08 torque 0 0 0 radius 6.57839824417981e-05 invMass 316449950.99479
BaseParticle id 63 indSpecies 0 position 0.00186120585455089 0.000162055003305845 0.00197260819606239 orientation 1 0 0 0 velocity -0.00485412879860575 0 -0.0141868517602528 angularVelocity 0 0 0 force 0 0 -1.05742353943323e-07 torque 0 0 0 radius 9.9059501553924e-05 invMass 92678095.7160522
BaseParticle id 64 indSpecies 0 position 0.00190639753970871 0.00263169873260735 0.00451315643851957 orientation 1 0 0 0 velocity 0.000749037353555637 0 -0.0146225910637861 angularVelocity 0 0 0 force 0 0 -2.48572828690144e-07 torque 0 0 0 radius 0.000131713724888498 invMass 39425065.2882745
BaseParticle id 65 indSpecies 0 position 0.00173470310467321 0.00112379609036837 0.0042804051799323 orientation 1 0 0 0 velocity -0.0025354977906351 0 -0.0111648589921121 angularVelocity 0 0 0 force 0 0 -7.12607505051205e-08 torque 0 0 0 radius 8.68486911217785e-05 invMass 137523109.573422
BaseParticle id 66 indSpecies 0 position 0.00375279131000445 0.00186013388274225 0.00439085890927469 orientation 1 0 0 0 velocity 0.00295857600126548 0 -0.011687402812178 angularVelocity 0 0 0 force 0 0 -4.28227850228373e-09 torque 0 0 0 radius 3.40176871877809e-05 invMass 2288501318.8128
BaseParticle id 67 indSpecies 0 position 0.00206603299151121 0.00431274049979379 0.00381744994900387 orientation 1 0 0 0 velocity 7.43378279038365e-05 0 -0.00996350372684606 angularVelocity 0 0 0 force 0 0 -6.18713680803312e-08 torque 0 0 0 radius 8.28532826882228e-05 invMass 158393135.695272
BaseParticle id 68 indSpecies 0 position 0.0025495885830865 0.000435549853895278 0.00445004914222635 orientation 1 0 0 0 velocity 0.00403208902195833 0 -0.0109008465932284 angularVelocity 0 0 0 force 0 0 -6.90284604366735e-08 torque 0 0 0 radius 8.59321892282469e-05 invMass 141970426.951511
BaseParticle id 69 indSpecies 0 position 0.00127288496739926 0.000608792863219237 0.00150707560970588 orientation 1 0 0 0 velocity -0.00430580732477288 0 -0.0105870232679611 angularVelocity 0 0 0 force 0 0 -3.11316654487034e-07 torque 0 0 0 radius 0.000141975671662228 invMass 31479202.4735964
BaseParticle id 70 indSpecies 0 position 0.00415555547398059 0.00174443878536631 0.000686000316290643 orientation 1 0 0 0 velocity -0.000641611781305065 0 -0.0101696984748247 angularVelocity 0 0 0 force 0 0 -1.48682502909947e-07 torque 0 0 0 radius 0.000110977030910017 invMass 65912261.4174418
BaseParticle id 71 indSpecies 0 position 0.00422134607796868 0.00199644631985906 0.00197413410867518 orientation 1 0 0 0 velocity 0.00485119469477684 0 -0.0100050584693001 angularVelocity 0 0 0 force 0 0 -5.04768572207461e-08 torque 0 0 0 radius 7.74183508922247e-05 invMass 194148378.872768
BaseParticle id 72 indSpecies 0 position 0.00463545124129095 0.00155536622129812 0.0033525305766767 orientation 1 0 0 0 velocity 0.00253533275096181 0 -0.0115600277096947 angularVelocity 0 0 0 force 0 0 -1.02109754423383e-08 torque 0 0 0 radius 4.54466864774655e-05 invMass 959751598.203418
BaseParticle id 73 indSpecies 0 position 0.00115015908591885 0.00447871530477077 0.00156615546185904 orientation 1 0 0 0 velocity -0.00441988917121674 0 -0.00983259299790988 angularVelocity 0 0 0 force 0 0 -4.56904074610212e-08 torque 0 0 0 radius 7.48895965109298e-05 invMass 214487034.469116
BaseParticle id 74 indSpecies 0 position 0.00489543508760043 0.000332775697733485 0.00122822849522014 orientation 1 0 0 0 velocity 0.00013598813197018 0 -0.0105465024425756 angularVelocity 0 0 0 force 0 0 -6.03867492333292e-09 torque 0 0 0 radius 3.8146997778265e-05 invMass 1622872587.84765
BaseParticle id 75 indSpecies 0 position 0.00198477330827947 0.000866861840834039 0.00268941948183369 orientation 1 0 0 0 velocity 0.0036017984537391 0 -0.014324528864337 angularVelocity 0 0 0 force 0 0 -3.6401861330348e-08 torque 0 0 0 radius 6.94258188309167e-05 invMass 269217002.698425
BaseParticle id 76 indSpecies 0 position 0.0031554762347816 0.000763858961161357 0.00472506583568798 orientation 1 0 0 0 velocity -0.000875083295744765 0 -0.0138152370799734 angularVelocity 0 0 0 force 0 0 -3.48491471957386e-07 torque 0 0 0 radius 0.000147415742861582 invMass 28121204.6451408
BaseParticle id 77 indSpecies 0 position 0.00317833968013894 0.000477132387014914 0.00357461472274299 orientation 1 0 0 0 velocity 0.000255184829928739 0 -0.0137226432807145 angularVelocity 0 0 0 force 0 0 -3.53258245203805e-08 torque 0 0 0 radius 6.87348911812146e-05 invMass 277417445.538917
BaseParticle id 78 indSpecies 0 position 0.00368158676306809 0.00203359272141606 0.00242640245470636 orientation 1 0 0 0 velocity 0.00169719776446261 0 -0.0110169565203051 angularVelocity 0 0 0 force 0 0 -4.22843145515697e-08 torque 0 0 0 radius 7.29804009985523e-05 invMass 231764428.581383