MercuryDPM 1.0 name SetDistributionPhiNormalSelfTest revision 7622ee90 repository https://bitbucket.org/mercurydpm/mercurydpm.git
dataFile    fileType ONE_FILE saveCount 1000 counter 2 lastSavedTimeStep 1000
fStatFile   fileType ONE_FILE saveCount 1000 counter 2 lastSavedTimeStep 1000
eneFile     fileType ONE_FILE saveCount 1000 counter 2 lastSavedTimeStep 1000
restartFile fileType ONE_FILE saveCount 1000 counter 2 lastSavedTimeStep 1000
statFile    fileType ONE_FILE saveCount 1000 counter 0
interactionFile fileType NO_FILE saveCount 0 counter 0
xMin 0 xMax 0.005 yMin 0 yMax 0.005 zMin 0 zMax 0.005
timeStep 1e-06 time 0.00100000000000002 ntimeSteps 1000 timeMax 0.001
systemDimensions 3 particleDimensions 3 gravity 0 0 -9.8 backgroundDrag 0 writeVTK 0 NO_FILE NO_FILE 0 0 0 0 0 random  0 1103515245 12345 1073741824 607 273 784607267
Species 1
LinearViscoelasticFrictionSpecies id 0 density 2650 stiffness 1500 dissipation 0.002 slidingStiffness 435 slidingDissipation 0.00058 slidingFrictionCoefficient 0.4 slidingFrictionCoefficientStatic 0.4 rollingStiffness 600 rollingDissipation 0.0008 rollingFrictionCoefficient 0.5 rollingFrictionCoefficientStatic 0.5 torsionStiffness 0 torsionDissipation 0 torsionFrictionCoefficient 0 torsionFrictionCoefficientStatic 0
Walls 5
InfiniteWall id 0 indSpecies 0 position 0 0 0 orientation 0.707106781186548 0 0.707106781186548 0 velocity 0 0 0 angularVelocity 0 0 0 force -2.00366699311333e-09 0 -7.26372436561766e-08 torque -1.99814062534098e-10 1.74487037974924e-10 -4.46330279158166e-11
InfiniteWall id 1 indSpecies 0 position 0 0 0 orientation 0.707106781186548 0 0 -0.707106781186548 velocity 0 0 0 angularVelocity 0 0 0 force 0 0 0 torque 0 0 0
InfiniteWall id 2 indSpecies 0 position 0 0.005 0 orientation 0.707106781186548 0 0 0.707106781186548 velocity 0 0 0 angularVelocity 0 0 0 force 0 0 0 torque 0 0 0
InfiniteWall id 3 indSpecies 0 position 0 0 0 orientation 0 0 1 0 velocity 0 0 0 angularVelocity 0 0 0 force 0 0 0 torque 0 0 0
InfiniteWall id 4 indSpecies 0 position 0.005 0 0 orientation 1 0 0 0 velocity 0 0 0 angularVelocity 0 0 0 force 0 0 0 torque 0 0 0
Boundaries 1
CubeInsertionBoundary id 0 maxFailed 1 volumeFlowRate 0 massInserted 2.99274625330253e-05 volumeInserted 1.12933820879341e-08 numberOfParticlesInserted 4605 isActivated 1 psdCount 1 psd 100 1.04291946475406e-05 0 1.0896704474814e-05 5.67292325980273e-09 1.13642143020874e-05 1.65903072292383e-08 1.18517820688141e-05 3.80314670278296e-08 1.23602683364449e-05 7.87864481398472e-08 1.28905705877705e-05 1.55840323678372e-07 1.34436248109875e-05 2.98690168437676e-07 1.40204071517255e-05 5.60348631064606e-07 1.46219356359526e-05 1.03195801901669e-06 1.52492719668008e-05 1.87024901718189e-06 1.5903523398481e-05 3.33793207938214e-06 1.65858446905971e-05 5.87072050663481e-06 1.72974401463063e-05 1.01771847278493e-05 1.80395657379256e-05 1.73932256344046e-05 1.88135313237334e-05 2.93076730391938e-05 1.96207029598818e-05 4.86933576950878e-05 2.04625053114972e-05 7.97746553590741e-05 2.13404241672274e-05 0.000128881405102832 2.22560090616715e-05 0.00020533518964671 2.32108760103224e-05 0.000322629733758557 2.42067103618487e-05 0.00049995649135273 2.52452697727497e-05 0.000764130810264188 2.6328387309635e-05 0.00115194644758267 2.74579746846036e-05 0.00171296785083654 2.86360256294325e-05 0.00251271420074774 2.98646194145311e-05 0.00363613976375922 3.11459245188719e-05 0.00519122862856126 3.24822024573755e-05 0.00731244631071446 3.38758117725043e-05 0.0101636892201379 3.53292121971111e-05 0.0139403004750662 3.68449689958893e-05 0.0188696469566895 3.84257574930881e-05 0.025209737848552 4.00743677944838e-05 0.033245381145078 4.17937097119408e-05 0.043281479151262 4.3586817899256e-05 0.0556332204694912 4.54568572083495e-05 0.0706131774573958 4.74071282752565e-05 0.0885156086996385 4.94410733457794e-05 0.109598615914811 5.15622823510819e-05 0.134065135069842 5.37744992439501e-05 0.162044053560315 5.60816286069018e-05 0.193572949405204 5.84877425438103e-05 0.228584046546914 6.0997087867203e-05 0.266894897368167 6.3614093593924e-05 0.308205069739914 6.63433787623883e-05 0.352099695472782 6.91897605852252e-05 0.398060205678545 7.21582629517022e-05 0.445481945126745 7.52541252949335e-05 0.493697734447897 7.8482811839527e-05 0.542005866472469 8.18500212459887e-05 0.589700595393578 8.53616966689094e-05 0.636102916230263 8.90240362466858e-05 0.68058941345795 9.28435040412896e-05 0.722617141450499 9.68268414473947e-05 0.761742904479846 0.000100981079090998 0.797635836290977 0.00010531354923854 0.830082815392969 0.000109831898738414 0.858986873675851 0.00011454410251773 0.884359336019462 0.000119458477658124 0.906306865557924 0.000124583698075487 0.925014889672834 0.000129928809829502 0.940728987244101 0.000135503247090017 0.953735780590539 0.000141316848788444 0.964344679013171 0.000147379875983557 0.972871548809881 0.000153703029972352 0.979625038418454 0.000160297471177935 0.98489595510916 0.000167174838847763 0.988949764600741 0.000174347271597024 0.992022037988364 0.000181827428833398 0.994316472374435 0.000189628513101026 0.996005010262119 0.000197764293383117 0.997229528363087 0.000206249129404327 0.998104590846278 0.0002150979969758 0.998720805582739 0.000224326514427607 0.999148412468441 0.000233950970175241 0.999440811740099 0.000243988351468812 0.999637839659676 0.000254456374375696 0.99976866679343 0.000265373515049553 0.999854269687509 0.000276759042340901 0.999909464289785 0.000288633051806808 0.999944533582363 0.000301016501179734 0.999966490545895 0.000313931247358108 0.999980037578462 0.000327400084983954 0.999988273718362 0.000341446786675637 0.999993208205948 0.000356096144986743 0.999996121251755 0.000371374016165158 0.999997816086064 0.000387307365789578 0.999998787560183 0.000403924316363993 0.999999336496123 0.000421254196954159 0.999999641942273 0.000439327594953657 0.999999809630502 0.000458176410070919 0.999999900143177 0.000477833910632496 0.99999994848879 0.000498334792301949 0.999999973734492 0.000519715239318007 0.999999986923351 0.000542012988360068 0.999999993515928 0.000565267395153776 0.999999996956428 0.000589519503934227 0.999999998530695 0.000614812119889409 0.999999999426489 0.000641189884711739 0.999999999729655 0.000668699355391051 1 initialVolume 3.125e-08 samplingInterval 0 variableCumulativeVolumeFlowRate 0 particleToCopy 1 BaseParticle id 0 indSpecies 0 position 0 0 0 orientation 1 0 0 0 velocity 0 0 0 angularVelocity 0 0 0 force 0 0 0 torque 0 0 0 radius 1 invMass 1 timeStamp 0 posMin 0 0 0 posMax 0.005 0.005 0.005 velMin -0.005 0 -0.005 velMax 0.005 0 0
Particles 4605
BaseParticle id 0 indSpecies 0 position 0.00231539474171738 0.00225775513122067 0.00422842625099565 orientation 1 0 0 0 velocity 0.00130600097933225 0 -0.014584668041648 angularVelocity 0 0 0 force 0 0 -3.76040688980454e-08 torque 0 0 0 radius 7.01818416277839e-05 invMass 260610095.853467 timeStamp 0
BaseParticle id 1 indSpecies 0 position 0.00206610919759738 0.000496575072876573 0.00384616505326727 orientation 1 0 0 0 velocity -0.00282938829825317 0 -0.0141268060691017 angularVelocity 0 0 0 force 0 0 -4.43338993017184e-08 torque 0 0 0 radius 7.41410030344143e-05 invMass 221049809.611945 timeStamp 0
BaseParticle id 2 indSpecies 0 position 0.00297748076360432 0.00463322018307334 0.000355633629942344 orientation 1 0 0 0 velocity -0.00112599694530853 0 -0.0128402251398359 angularVelocity 0 0 0 force 0 0 -4.5644376588106e-08 torque 0 0 0 radius 7.48644388466999e-05 invMass 214703337.684618 timeStamp 0
BaseParticle id 3 indSpecies 0 position 0.000967993191618503 0.00401537888309417 0.00106310877926485 orientation 1 0 0 0 velocity 0.000770919885699712 0 -0.0141242122798545 angularVelocity 0 0 0 force 0 0 -1.33601212949413e-07 torque 0 0 0 radius 0.000107090253688446 invMass 73352627.4474069 timeStamp 0
BaseParticle id 4 indSpecies 0 position 0.00146306221493217 0.00325811825389218 0.00152503775611547 orientation 1 0 0 0 velocity 0.004859161777553 0 -0.0112385921402085 angularVelocity 0 0 0 force 0 0 -6.0566031755989e-08 torque 0 0 0 radius 8.2266468342213e-05 invMass 161806869.558215 timeStamp 0
BaseParticle id 5 indSpecies 0 position 0.00104006147891469 0.00484919595080503 0.00268049264815834 orientation 1 0 0 0 velocity -0.00159955306295347 0 -0.0138013891095826 angularVelocity 0 0 0 force 0 0 -2.00952334459309e-08 torque 0 0 0 radius 5.69522429109099e-05 invMass 487677837.949398 timeStamp 0
BaseParticle id 6 indSpecies 0 position 0.00482782211437163 0.000935995517358188 0.00374802752046689 orientation 1 0 0 0 velocity -0.00017131314131309 0 -0.0140069960067527 angularVelocity 0 0 0 force 0 0 -7.10886061827435e-09 torque 0 0 0 radius 4.02791051335723e-05 invMass 1378561280.94672 timeStamp 0
BaseParticle id 7 indSpecies 0 position 0.000639248686650965 0.00153083291227852 0.00295063660926518 orientation 1 0 0 0 velocity -0.00425136501970574 0 -0.0133975597998693 angularVelocity 0 0 0 force 0 0 -1.83223431021959e-07 torque 0 0 0 radius 0.000118979868382903 invMass 53486608.9197155 timeStamp 0
BaseParticle id 8 indSpecies 0 position 0.00385909391409676 0.00423438857846485 0.00393637590853031 orientation 1 0 0 0 velocity -0.00459699315056485 0 -0.0102788698531493 angularVelocity 0 0 0 force 0 0 -3.92211944212011e-08 torque 0 0 0 radius 7.11737888298677e-05 invMass 249864904.540046 timeStamp 0
BaseParticle id 9 indSpecies 0 position 0.00445314513267789 0.00305611482536782 0.00339939926444358 orientation 1 0 0 0 velocity 0.00131496571347586 0 -0.0103758493435403 angularVelocity 0 0 0 force 0 0 -1.23331964993732e-08 torque 0 0 0 radius 4.83992201546654e-05 invMass 794603410.437677 timeStamp 0
BaseParticle id 10 indSpecies 0 position 0.00447751280356183 0.00212625814403756 0.00392918768429302 orientation 1 0 0 0 velocity -0.00127752551224313 0 -0.0118965109839678 angularVelocity 0 0 0 force 0 0 -1.08459122950085e-07 torque 0 0 0 radius 9.99006950405046e-05 invMass 90356622.2318629 timeStamp 0
BaseParticle id 11 indSpecies 0 position 0.00219962809058095 0.000274647478689768 0.000146581896290314 orientation 1 0 0 0 velocity -0.00270282554654141 0 -0.014315481126069 angularVelocity 0 0 0 force 0 0 -2.00120290193223e-08 torque 0 0 0 radius 5.68735304807642e-05 invMass 489705466.174259 timeStamp 0
BaseParticle id 12 indSpecies 0 position 0.0040826566980511 0.00386176943419336 0.0022690033491901 orientation 1 0 0 0 velocity -0.000338125270476448 0 -0.0122665954640057 angularVelocity 0 0 0 force 0 0 -7.67441007532043e-08 torque 0 0 0 radius 8.90214808181194e-05 invMass 127697111.619238 timeStamp 0
BaseParticle id 13 indSpecies 0 position 0.00405302885075163 0.00483856315273925 0.00290761630148855 orientation 1 0 0 0 velocity -0.00046902208079675 0 -0.0131620058388415 angularVelocity 0 0 0 force 0 0 -1.31750503854194e-08 torque 0 0 0 radius 4.94763031600148e-05 invMass 743830172.433002 timeStamp 0
BaseParticle id 14 indSpecies 0 position 0.00128458167868134 0.00166123958149809 0.000480413560548107 orientation 1 0 0 0 velocity -0.000134998862505891 0 -0.0124746037345227 angularVelocity 0 0 0 force 0 0 -2.87797924160457e-08 torque 0 0 0 radius 6.41961573287505e-05 invMass 340516702.077955 timeStamp 0
BaseParticle id 15 indSpecies 0 position 0.00345416168825857 0.0024133512774358 0.00380144869450863 orientation 1 0 0 0 velocity -0.000657356189882983 0 -0.0131158359879092 angularVelocity 0 0 0 force 0 0 -6.6585056298021e-08 torque 0 0 0 radius 8.49060696187989e-05 invMass 147180171.420705 timeStamp 0
BaseParticle id 16 indSpecies 0 position 0.00215936280065391 0.00162313309812626 0.000248345842426682 orientation 1 0 0 0 velocity 0.004576988434813 0 -0.00986739945150034 angularVelocity 0 0 0 force 0 0 -2.35563619207724e-07 torque 0 0 0 radius 0.000129374659492308 invMass 41602349.433077 timeStamp 0
BaseParticle id 17 indSpecies 0 position 0.00222554563096259 0.00131321385846174 0.00424121607234621 orientation 1 0 0 0 velocity 0.00384841543729565 0 -0.00987171330972227 angularVelocity 0 0 0 force 0 0 -1.14231537704729e-08 torque 0 0 0 radius 4.71782493429339e-05 invMass 857906686.446914 timeStamp 0
BaseParticle id 18 indSpecies 0 position 0.00312966006260767 0.00378844990973505 0.00419733263297547 orientation 1 0 0 0 velocity 0.00101846719531485 0 -0.0126875650392572 angularVelocity 0 0 0 force 0 0 -3.27230775911975e-08 torque 0 0 0 radius 6.70035573821087e-05 invMass 299482833.565636 timeStamp 0
BaseParticle id 19 indSpecies 0 position 0.000280778722570314 0.000455661513418274 0.00221717421360303 orientation 1 0 0 0 velocity -0.00464896558816641 0 -0.0116201938627641 angularVelocity 0 0 0 force 0 0 -3.76925042104787e-08 torque 0 0 0 radius 7.02368152357186e-05 invMass 259998644.432745 timeStamp 0
BaseParticle id 20 indSpecies 0 position 0.00126092504692373 0.00373747692561012 0.00422146556538649 orientation 1 0 0 0 velocity -0.000673464550009495 0 -0.0098037289876996 angularVelocity 0 0 0 force 0 0 -3.23997925042052e-08 torque 0 0 0 radius 6.67821745931796e-05 invMass 302471072.885052 timeStamp 0
BaseParticle id 21 indSpecies 0 position 0.00391896719818743 0.000609593879795081 0.000368918003542608 orientation 1 0 0 0 velocity -0.000664519168748968 0 -0.0138098097324823 angularVelocity 0 0 0 force 0 0 -4.5396567405306e-08 torque 0 0 0 radius 7.47287100352773e-05 invMass 215875352.700226 timeStamp 0
BaseParticle id 22 indSpecies 0 position 0.0022040149741373 0.00236289265811174 0.00308414275671623 orientation 1 0 0 0 velocity -0.00180951533204921 0 -0.0128082401186694 angularVelocity 0 0 0 force 0 0 -1.6924552853634e-08 torque 0 0 0 radius 5.37838905972611e-05 invMass 579040408.615331 timeStamp 0
BaseParticle id 23 indSpecies 0 position 0.00432814700286577 0.000511779919721391 0.00415632207913955 orientation 1 0 0 0 velocity 0.00384476968194845 0 -0.0107392800918955 angularVelocity 0 0 0 force 0 0 -1.244503035322e-07 torque 0 0 0 radius 0.00010458718334171 invMass 78746292.4705876 timeStamp 0
BaseParticle id 24 indSpecies 0 position 0.00267105270475316 0.000418549230863761 0.00260207368081082 orientation 1 0 0 0 velocity -0.00153557204964052 0 -0.0129264447531959 angularVelocity 0 0 0 force 0 0 -2.02009084260968e-08 torque 0 0 0 radius 5.70519001779112e-05 invMass 485126697.933036 timeStamp 0
BaseParticle id 25 indSpecies 0 position 0.00369536621403866 0.00279714190140633 0.00349746120848512 orientation 1 0 0 0 velocity 0.00462590691668363 0 -0.0124284640118757 angularVelocity 0 0 0 force 0 0 -5.43974374131425e-08 torque 0 0 0 radius 7.93729693151896e-05 invMass 180155545.298395 timeStamp 0
BaseParticle id 26 indSpecies 0 position 0.0021814169432584 0.0029854910792918 0.00287240380839002 orientation 1 0 0 0 velocity -0.00232815285462127 0 -0.0108951504753557 angularVelocity 0 0 0 force 0 0 -1.06921988355123e-07 torque 0 0 0 radius 9.94265009466123e-05 invMass 91655609.3911294 timeStamp 0
BaseParticle id 27 indSpecies 0 position 0.00440844907876792 0.000293692522408726 0.0012544224041931 orientation 1 0 0 0 velocity 0.000269812498921702 0 -0.0116083354488479 angularVelocity 0 0 0 force 0 0 -1.69073025644635e-08 torque 0 0 0 radius 5.37656113736406e-05 invMass 579631195.611184 timeStamp 0
BaseParticle id 28 indSpecies 0 position 0.0013497090193933 0.000770859359045644 0.000383788597787841 orientation 1 0 0 0 velocity -0.00120885418149749 0 -0.00990078226212151 angularVelocity 0 0 0 force 0 0 -4.67826473321252e-08 torque 0 0 0 radius 7.54816546190446e-05 invMass 209479380.900072 timeStamp 0
BaseParticle id 29 indSpecies 0 position 0.00169176318296806 0.00163815077707344 0.00292301694881464 orientation 1 0 0 0 velocity 0.00156877283326464 0 -0.0133531701301272 angularVelocity 0 0 0 force 0 0 -2.59842423128389e-08 torque 0 0 0 radius 6.20463873149848e-05 invMass 377151655.299866 timeStamp 0
BaseParticle id 30 indSpecies 0 position 0.0011641337627958 0.00379143993948452 0.00261119000962271 orientation 1 0 0 0 velocity 0.00419134873040826 0 -0.0134473481649635 angularVelocity 0 0 0 force 0 0 -7.34931620321328e-08 torque 0 0 0 radius 8.77462957196893e-05 invMass 133345738.96433 timeStamp 0
BaseParticle id 31 indSpecies 0 position 0.000755588902706107 0.0027210255593797 0.00459868515754582 orientation 1 0 0 0 velocity -0.0030628744437705 0 -0.0129555303157333 angularVelocity 0 0 0 force 0 0 -2.48368742000485e-08 torque 0 0 0 radius 6.1119359286546e-05 invMass 394574611.968719 timeStamp 0
BaseParticle id 32 indSpecies 0 position 0.00270049271863547 0.00373580021435786 0.00265016598367455 orientation 1 0 0 0 velocity 0.00144646338518107 0 -0.0124071442779629 angularVelocity 0 0 0 force 0 0 -4.92621895194597e-07 torque 0 0 0 radius 0.000165444011028359 invMass 19893553.4445313 timeStamp 0
BaseParticle id 33 indSpecies 0 position 0.00452249537551048 0.00418089360540649 0.00057636706498276 orientation 1 0 0 0 velocity -0.0049622451048696 0 -0.0145586957926859 angularVelocity 0 0 0 force 0 0 -4.48469945532435e-08 torque 0 0 0 radius 7.44259285436636e-05 invMass 218520774.861851 timeStamp 0
BaseParticle id 34 indSpecies 0 position 0.000796853487897348 0.00485364764476787 0.00484285506720289 orientation 1 0 0 0 velocity 0.004241394354737 0 -0.010077441134472 angularVelocity 0 0 0 force 0 0 -7.94412954435096e-08 torque 0 0 0 radius 9.00523919374876e-05 invMass 123361533.133215 timeStamp 0
BaseParticle id 35 indSpecies 0 position 0.00284400422446889 0.00294103587238022 0.00441877604200367 orientation 1 0 0 0 velocity -0.00182114928325531 0 -0.0109127521460367 angularVelocity 0 0 0 force 0 0 -1.78971816236352e-08 torque 0 0 0 radius 5.4795054365777e-05 invMass 547572249.423789 timeStamp 0
BaseParticle id 36 indSpecies 0 position 0.000592213633820298 0.00208823026894757 0.00399191721134308 orientation 1 0 0 0 velocity 0.00369167595292285 0 -0.0133242062495408 angularVelocity 0 0 0 force 0 0 -2.06520058383967e-08 torque 0 0 0 radius 5.74734445897159e-05 invMass 474530177.682771 timeStamp 0
BaseParticle id 37 indSpecies 0 position 0.00372154383047319 0.000769924637144501 0.000510503106199389 orientation 1 0 0 0 velocity 0.00230118187395746 0 -0.014541852097508 angularVelocity 0 0 0 force 0 0 -3.21270724711306e-07 torque 0 0 0 radius 0.000143473006134785 invMass 30503868.6883353 timeStamp 0
BaseParticle id 38 indSpecies 0 position 0.000467571282240758 0.000154887372483604 0.00208281408483044 orientation 1 0 0 0 velocity 0.00186011585699383 0 -0.0137385890226064 angularVelocity 0 0 0 force 0 0 -4.6872618795446e-08 torque 0 0 0 radius 7.55300119081146e-05 invMass 209077287.590173 timeStamp 0
BaseParticle id 39 indSpecies 0 position 0.00323354914544231 0.00114490351998722 0.00467032933217915 orientation 1 0 0 0 velocity -0.000130477775698082 0 -0.0100947275478051 angularVelocity 0 0 0 force 0 0 -2.90056479048308e-08 torque 0 0 0 radius 6.43636509026432e-05 invMass 337865233.424689 timeStamp 0
BaseParticle id 40 indSpecies 0 position 0.0035619954442811 0.000640051806680809 0.00219013560563108 orientation 1 0 0 0 velocity 0.00105432332860834 0 -0.0120918768345996 angularVelocity 0 0 0 force 0 0 -1.41768546360869e-07 torque 0 0 0 radius 0.000109229457273742 invMass 69126758.0261019 timeStamp 0
BaseParticle id 41 indSpecies 0 position 0.00493802813251286 0.0022626862048519 0.00416157770134989 orientation 1 0 0 0 velocity -0.00223935636017532 0 -0.0128301166251564 angularVelocity 0 0 0 force 0 0 -2.13706313997233e-08 torque 0 0 0 radius 5.81324908041718e-05 invMass 458573254.888805 timeStamp 0
BaseParticle id 42 indSpecies 0 position 0.00317969473490297 0.00438646168970832 0.000840964676903303 orientation 1 0 0 0 velocity 0.00461445872707809 0 -0.0124417243363489 angularVelocity 0 0 0 force 0 0 -5.51686777186522e-08 torque 0 0 0 radius 7.97463238381532e-05 invMass 177637028.931123 timeStamp 0
BaseParticle id 43 indSpecies 0 position 0.00427226433594818 0.00186243270350394 0.0030101117866525 orientation 1 0 0 0 velocity -0.0020753018305867 0 -0.01219668925075 angularVelocity 0 0 0 force 0 0 -3.41954905647255e-07 torque 0 0 0 radius 0.000146488239557228 invMass 28658749.5548587 timeStamp 0
BaseParticle id 44 indSpecies 0 position 0.00493487884030782 0.00172386155303208 0.000942332126181839 orientation 1 0 0 0 velocity -0.00257353406625471 0 -0.0133254692999021 angularVelocity 0 0 0 force 0 0 -1.73596658708922e-08 torque 0 0 0 radius 5.4240905907241e-05 invMass 564526994.521949 timeStamp 0
BaseParticle id 45 indSpecies 0 position 0.00358839556933949 0.00027877971038336 0.000824472058292814 orientation 1 0 0 0 velocity -0.00111933744873913 0 -0.0104763907655903 angularVelocity 0 0 0 force 0 0 -9.00475618799544e-08 torque 0 0 0 radius 9.38938469790582e-05 invMass 108831375.27993 timeStamp 0
BaseParticle id 46 indSpecies 0 position 0.00454824765980349 0.000511625883624306 0.00297332232911765 orientation 1 0 0 0 velocity -0.00316816754809751 0 -0.0122260219723286 angularVelocity 0 0 0 force 0 0 -4.20642592986123e-08 torque 0 0 0 radius 7.28535796556575e-05 invMass 232976882.593611 timeStamp 0
BaseParticle id 47 indSpecies 0 position 0.00184684943514307 0.000995646052997889 0.00440152488506512 orientation 1 0 0 0 velocity -0.00168456304195843 0 -0.0113380875705928 angularVelocity 0 0 0 force 0 0 -8.58105192393807e-08 torque 0 0 0 radius 9.23974509927264e-05 invMass 114205112.460181 timeStamp 0
BaseParticle id 48 indSpecies 0 position 0.000919528857933794 0.0048444929161626 0.00225339209971601 orientation 1 0 0 0 velocity 0.00172104408338569 0 -0.0104390184810562 angularVelocity 0 0 0 force 0 0 -1.52182344621154e-08 torque 0 0 0 radius 5.19120170714655e-05 invMass 643964319.540241 timeStamp 0
BaseParticle id 49 indSpecies 0 position 0.00336213056257206 0.00196152206793286 0.00251457156765432 orientation 1 0 0 0 velocity -0.00289685961986253 0 -0.0128932086305367 angularVelocity 0 0 0 force 0 0 -4.05652494491385e-08 torque 0 0 0 radius 7.19776832705896e-05 invMass 241586089.894194 timeStamp 0
BaseParticle id 50 indSpecies 0 position 0.000380743709284539 0.00172784187670067 0.00379684441614159 orientation 1 0 0 0 velocity 0.00395836357124302 0 -0.0112225674407888 angularVelocity 0 0 0 force 0 0 -1.35215521405339e-08 torque 0 0 0 radius 4.99062949998526e-05 invMass 724768865.152862 timeStamp 0
BaseParticle id 51 indSpecies 0 position 0.00246796428897402 0.00141068465410668 0.00327768432688313 orientation 1 0 0 0 velocity -0.000700869480426545 0 -0.0101056764740053 angularVelocity 0 0 0 force 0 0 -2.48452467764653e-08 torque 0 0 0 radius 6.11262263478808e-05 invMass 394441644.640176 timeStamp 0
BaseParticle id 52 indSpecies 0 position 0.00285105605782198 0.00310485988566199 0.000739261024818054 orientation 1 0 0 0 velocity 0.000374682261259592 0 -0.0123772962043815 angularVelocity 0 0 0 force 0 0 -6.72809610603192e-08 torque 0 0 0 radius 8.5200839864071e-05 invMass 145657848.008652 timeStamp 0
BaseParticle id 53 indSpecies 0 position 0.00308734457662185 0.00457863116676115 0.00359122354242129 orientation 1 0 0 0 velocity 0.00457208542193092 0 -0.0111538902846204 angularVelocity 0 0 0 force 0 0 -1.12539166808598e-08 torque 0 0 0 radius 4.69441030512215e-05 invMass 870807939.840841 timeStamp 0
BaseParticle id 54 indSpecies 0 position 0.00400973252765951 0.00239928005971082 0.000513273592238803 orientation 1 0 0 0 velocity 0.00305637136282737 0 -0.0116480755558331 angularVelocity 0 0 0 force 0 0 -4.30368558117043e-08 torque 0 0 0 radius 7.34108059508738e-05 invMass 227711802.248686 timeStamp 0
BaseParticle id 55 indSpecies 0 position 0.00126002488370771 0.00305744637916102 0.00344627616005176 orientation 1 0 0 0 velocity 0.00292814079865055 0 -0.0139093902578102 angularVelocity 0 0 0 force 0 0 -2.6961972988864e-08 torque 0 0 0 radius 6.28150490808387e-05 invMass 363474883.831671 timeStamp 0
BaseParticle id 56 indSpecies 0 position 0.000113471672814012 0.0034941598833593 0.00347651213845479 orientation 1 0 0 0 velocity 0.00363293279089692 0 -0.0126621222052687 angularVelocity 0 0 0 force 0 0 -5.33880240164855e-08 torque 0 0 0 radius 7.88789455014804e-05 invMass 183561766.529773 timeStamp 0
BaseParticle id 57 indSpecies 0 position 0.00470635097095489 0.000317901069933642 0.00252926725251378 orientation 1 0 0 0 velocity 0.00154179626466539 0 -0.0147531535199892 angularVelocity 0 0 0 force 0 0 -1.07834654868583e-07 torque 0 0 0 radius 9.97085952958852e-05 invMass 90879875.4161469 timeStamp 0
BaseParticle id 58 indSpecies 0 position 0.00221233139812653 0.0011782535154575 0.00312392921117512 orientation 1 0 0 0 velocity -0.000635156467896741 0 -0.0129071428274281 angularVelocity 0 0 0 force 0 0 -1.34036685615268e-07 torque 0 0 0 radius 0.000107206480929321 invMass 73114311.6156231 timeStamp 0
BaseParticle id 59 indSpecies 0 position 0.00369074720887475 0.00467805551395001 0.00153740634907957 orientation 1 0 0 0 velocity 0.00304572656001362 0 -0.014235156938269 angularVelocity 0 0 0 force 0 0 -1.02077108159505e-07 torque 0 0 0 radius 9.79014820676199e-05 invMass 96005854.5613048 timeStamp 0
BaseParticle id 60 indSpecies 0 position 0.00167629396865607 0.00303817501940003 0.0041394303717541 orientation 1 0 0 0 velocity -0.00126788974155868 0 -0.0128132093439298 angularVelocity 0 0 0 force 0 0 -7.27206928741877e-09 torque 0 0 0 radius 4.05850248671363e-05 invMass 1347621923.37121 timeStamp 0
BaseParticle id 61 indSpecies 0 position 0.00248509397297968 0.000608248239747948 0.00106483451343377 orientation 1 0 0 0 velocity -0.00118870149721513 0 -0.0102722257979082 angularVelocity 0 0 0 force 0 0 -2.62526503054872e-08 torque 0 0 0 radius 6.22592949490837e-05 invMass 373295643.905013 timeStamp 0
BaseParticle id 62 indSpecies 0 position 0.00123544551718219 0.00122905336671597 0.00362220918163732 orientation 1 0 0 0 velocity 0.00319761010986044 0 -0.0129349661172585 angularVelocity 0 0 0 force 0 0 -1.66437521037325e-07 torque 0 0 0 radius 0.000115229468824823 invMass 58880953.8793976 timeStamp 0
BaseParticle id 63 indSpecies 0 position 0.00397816621592277 0.00217224291789137 0.00310211551558189 orientation 1 0 0 0 velocity -0.00112290761794624 0 -0.0104823595002067 angularVelocity 0 0 0 force 0 0 -3.03678572783441e-08 torque 0 0 0 radius 6.53558594664683e-05 invMass 322709630.454848 timeStamp 0
BaseParticle id 64 indSpecies 0 position 0.0025323273663025 0.00357101454998272 0.00482214128745844 orientation 1 0 0 0 velocity -0.00484639404355884 0 -0.0143595501461055 angularVelocity 0 0 0 force 0 0 -1.79249689435661e-07 torque 0 0 0 radius 0.000118113430752369 invMass 54672340.1912369 timeStamp 0
BaseParticle id 65 indSpecies 0 position 0.0045138613158893 0.00460551808159284 0.00388497149084251 orientation 1 0 0 0 velocity -0.00218538047076633 0 -0.0141863071367815 angularVelocity 0 0 0 force 0 0 -6.38629654633065e-08 torque 0 0 0 radius 8.37329079513315e-05 invMass 153453569.355948 timeStamp 0
BaseParticle id 66 indSpecies 0 position 0.000342621156137327 0.000535766914919236 0.00419992932638596 orientation 1 0 0 0 velocity -0.00447966113735022 0 -0.0130506612146344 angularVelocity 0 0 0 force 0 0 -8.69607758632995e-08 torque 0 0 0 radius 9.28084705350717e-05 invMass 112694486.712094 timeStamp 0
BaseParticle id 67 indSpecies 0 position 0.00217825810332928 0.00385756408436451 0.0046175058750493 orientation 1 0 0 0 velocity -0.000936942961125686 0 -0.0127986536801416 angularVelocity 0 0 0 force 0 0 -6.04163112124908e-08 torque 0 0 0 radius 8.21986242430441e-05 invMass 162207850.882063 timeStamp 0
BaseParticle id 68 indSpecies 0 position 0.00492734092900261 0.00377567460408837 0.00478170524155544 orientation 1 0 0 0 velocity 0.00174532694113876 0 -0.0132397337787026 angularVelocity 0 0 0 force 0 0 -3.03710420902096e-08 torque 0 0 0 radius 6.53581441062089e-05 invMass 322675790.013775 timeStamp 0
BaseParticle id 69 indSpecies 0 position 0.00377137184392155 0.00242802508414907 0.00322965642689538 orientation 1 0 0 0 velocity 0.00370917761818582 0 -0.0103163846952297 angularVelocity 0 0 0 force 0 0 -1.44499848290055e-07 torque 0 0 0 radius 0.00010992646884393 invMass 67820140.4082339 timeStamp 0
BaseParticle id 70 indSpecies 0 position 0.000285989703426894 0.00225151334679545 0.0049529493450126 orientation 1 0 0 0 velocity -0.00406978074547855 0 -0.0144623243022673 angularVelocity 0 0 0 force 0 0 -1.47236570065831e-08 torque 0 0 0 radius 5.13434496171475e-05 invMass 665595510.382936 timeStamp 0
BaseParticle id 71 indSpecies 0 position 0.00257070088616492 0.0038007419101887 0.00423957345240394 orientation 1 0 0 0 velocity 0.00270952970934144 0 -0.0139282381591667 angularVelocity 0 0 0 force 0 0 -1.73809333883524e-07 torque 0 0 0 radius 0.000116906191370391 invMass 56383623.2556265 timeStamp 0
BaseParticle id 72 indSpecies 0 position 0.00430154472987714 0.00361823554745108 0.000461444130766026 orientation 1 0 0 0 velocity 0.000646149156944689 0 -0.0140312410388394 angularVelocity 0 0 0 force 0 0 -3.80467031953738e-08 torque 0 0 0 radius 7.04561363564856e-05 invMass 257578165.174417 timeStamp 0
BaseParticle id 73 indSpecies 0 position 0.00206027315402595 0.00114756751698668 0.000970449475281981 orientation 1 0 0 0 velocity -0.00218738548719568 0 -0.0143179676129859 angularVelocity 0 0 0 force 0 0 -1.02481099034262e-07 torque 0 0 0 radius 9.80304670512108e-05 invMass 95627389.756267 timeStamp 0
BaseParticle id 74 indSpecies 0 position 0.0026240256744188 0.000537517033016759 0.00106459817841501 orientation 1 0 0 0 velocity -0.00357031085661583 0 -0.0127615072785846 angularVelocity 0 0 0 force 0 0 -3.41173536502619e-08 torque 0 0 0 radius 6.79419894330852e-05 invMass 287243849.580484 timeStamp 0
BaseParticle id 75 indSpecies 0 position 0.00334720359046996 0.00465117070390734 0.00377026869947283 orientation 1 0 0 0 velocity -0.00139668844975839 0 -0.0127777628854667 angularVelocity 0 0 0 force 0 0 -8.70832717592468e-09 torque 0 0 0 radius 4.30980935453455e-05 invMass 1125359647.38364 timeStamp 0