MercuryDPM 0.14 name SimpleShearIniSelfTest revision 4848 repository https://svn.mercurydpm.org/SourceCode/MercuryLab
dataFile    fileType NO_FILE saveCount 1000 counter 0
fStatFile   fileType NO_FILE saveCount 1000 counter 0
eneFile     fileType ONE_FILE saveCount 10 counter 12 lastSavedTimeStep 110
restartFile fileType ONE_FILE saveCount 1000 counter 2 lastSavedTimeStep 110
statFile    fileType ONE_FILE saveCount 1000 counter 0
interactionFile fileType NO_FILE saveCount 0 counter 0
xMin 0 xMax 35.3389141702479 yMin 0 yMax 35.3389141702479 zMin 0 zMax 35.3389141702479
timeStep 0.00455746943657889 time 0.501321638023677 ntimeSteps 110 timeMax 0.5
systemDimensions 3 particleDimensions 3 gravity 0 0 0 writeVTK 0 NO_FILE NO_FILE 0 0 0 0 random  0 1103515245 12345 1073741824 607 273 784607267
Species 1
LinearPlasticViscoelasticFrictionSpecies id 0 density 2000 loadingStiffness 100000 maxUnloadingStiffness 100000 cohesionStiffness 0 maxPenetration 0.5 dissipation 1002.54074075016 slidingStiffness 20000 slidingDissipation 200.508148150032 slidingFrictionCoefficient 0 slidingFrictionCoefficientStatic 0 rollingStiffness 20000 rollingDissipation 200.508148150032 rollingFrictionCoefficient 0 rollingFrictionCoefficientStatic 0 torsionStiffness 20000 torsionDissipation 200.508148150032 torsionFrictionCoefficient 0 torsionFrictionCoefficientStatic 0
Walls 0
Boundaries 3
PeriodicBoundary id 0 normal 1 0 0 scaleFactor 1 distanceLeft 0 distanceRight 35.3389141702479 shift 35.3389141702479 0 0
PeriodicBoundary id 1 normal 0 1 0 scaleFactor 1 distanceLeft 0 distanceRight 35.3389141702479 shift 0 35.3389141702479 0
PeriodicBoundary id 2 normal 0 0 1 scaleFactor 1 distanceLeft 0 distanceRight 35.3389141702479 shift 0 0 35.3389141702479
Particles 4096
BaseParticle id 0 indSpecies 0 position 15.3343467228259 14.3806714456192 28.1099200034726 orientation 1 7.89471136078512e-17 6.58495928090464e-17 -1.80981542946958e-17 velocity 1.21722135965857 -0.489047258392101 1.30544891913917 angularVelocity 3.86655745823645e-16 7.04546170882085e-16 -7.47744139677309e-17 force 19679.5468213172 18520.6668509198 -9002.76861663668 torque -1.52260426489192e-11 5.85487214266323e-12 1.58877355715958e-11 radius 0.929633479165255 invMass 0.000148575133077138
BaseParticle id 1 indSpecies 0 position 7.50088339008964 1.57142597425006 28.9161626983895 orientation 1 -1.59311334056976e-17 -1.21922808410218e-17 -7.01945634718437e-18 velocity 1.68326944045363 -0.463005668125247 -0.0996991574601274 angularVelocity -9.0340526277854e-17 -3.07356569888917e-16 8.86280057341243e-17 force 10039.6210005388 -55896.294244984 -19329.1983646264 torque -3.82627263206814e-12 3.18323145620525e-12 3.27737836869346e-12 radius 1.13060009793323 invMass 8.25951105514186e-05
BaseParticle id 2 indSpecies 0 position 2.85174575617898 23.5516111926476 6.21187467746803 orientation 1 -3.76176276889127e-17 -5.73841273246236e-18 -7.73092651410651e-18 velocity 0.613589920848776 -2.62059502014816 -2.44354192462755 angularVelocity -2.6356614448869e-17 -5.58234866712822e-17 -6.78381252185102e-16 force 50305.4713362277 40143.5468395341 -18043.9913098927 torque 4.9737991503207e-12 -1.75077730091289e-11 1.17097442853265e-11 radius 0.913787151301478 invMass 0.000156439440304123
BaseParticle id 3 indSpecies 0 position 4.65590503329191 10.5997473969444 19.5630274348918 orientation 1 -2.03385448701637e-16 -1.07399559372523e-16 3.62847053204704e-17 velocity 0.877185148568086 -0.775731889425249 0.7215458092651 angularVelocity -1.01047161029497e-15 -4.11511343293988e-16 2.70069897970617e-16 force -3341.37499074243 52462.6515157315 -161.608746465948 torque -8.8220986071974e-11 3.5811353882309e-11 2.01794136955868e-11 radius 1.13613395706179 invMass 8.13940716280391e-05
BaseParticle id 4 indSpecies 0 position 2.89186188501101 12.6965659772515 13.7276564297465 orientation 1 -7.32225301231201e-18 -2.48333011062117e-17 2.20798787974015e-17 velocity 0.874520924384601 0.604548771127641 -0.115043307671219 angularVelocity -9.57624818609629e-18 -8.01443593390641e-17 1.27888247781262e-16 force -50667.5281223987 30445.2643261656 101271.036785271 torque 7.69659891375341e-11 1.39834810397588e-11 2.41016095969826e-11 radius 1.42664403661467 invMass 4.11087734344307e-05
BaseParticle id 5 indSpecies 0 position 15.2608333842704 6.11617969583057 26.4443182371754 orientation 1 -3.26003727738494e-17 7.23431388183304e-17 -4.6146794136751e-18 velocity 2.70844133051118 0.86747728210051 2.02177048823455 angularVelocity -3.25831355350008e-16 3.86986586757843e-16 4.00273532130909e-16 force 14514.6401159728 22621.9589192787 24079.4528764429 torque 1.58024704433046e-11 -3.88524767913623e-11 7.90123522165231e-12 radius 0.890974972032965 invMass 0.000168765970468489
BaseParticle id 6 indSpecies 0 position 18.0651258611767 25.3131041085312 3.70363583566358 orientation 1 4.80366894745972e-16 1.12263652854646e-16 -4.42616888794057e-16 velocity -0.93754024152627 -1.71840995073119 -1.14946426753785 angularVelocity 1.44099745900657e-15 3.3771622145908e-16 -3.8163654690576e-15 force 42866.3124008034 -48131.5631541782 19098.4594899144 torque -8.41282599139959e-12 -4.25188773078844e-11 -1.31876731757075e-10 radius 0.714465732486485 invMass 0.000327293351718697
BaseParticle id 7 indSpecies 0 position 9.02438800987743 19.8658298645539 8.7152903366319 orientation 1 -1.37525966623353e-16 1.02010958739775e-16 -8.44604112803744e-17 velocity -1.04850564667938 -2.73950686645741 -4.71557832046704 angularVelocity -6.09405112483679e-16 1.74028072405109e-16 3.31801610191176e-16 force 40705.4133802395 41727.2147051253 -68559.3043395026 torque -1.10304654299398e-10 -6.15045792073943e-11 -1.20849108498078e-10 radius 1.03860153580215 invMass 0.000106545353256062
BaseParticle id 8 indSpecies 0 position 14.7410276130206 23.7316825498691 5.61256202874786 orientation 1 1.74089500441784e-17 1.49846872242871e-18 -5.80273813042564e-18 velocity -0.229303566779018 1.56149196918073 -0.451440773235873 angularVelocity 1.48954845024195e-16 -3.08309745322483e-17 8.59958906056397e-17 force 38979.7939687456 -63213.8274199181 39028.7557513803 torque -2.80806489172392e-11 4.35420588473789e-11 -3.95630195271224e-11 radius 1.4859161777553 invMass 3.6382996264851e-05
BaseParticle id 9 indSpecies 0 position 33.0892843061544 17.4640971825729 11.1266366894412 orientation 1 4.01325450043577e-16 6.01864233593409e-16 -3.69320084956542e-16 velocity 4.02483344122771 -0.0264229529087062 0.366035235000536 angularVelocity 1.61708197151154e-15 3.17896732828606e-15 -2.34681807027224e-15 force -403.536913459214 2.64921195298085 -36.6993395146256 torque 0 0 0 radius 0.70833188648491 invMass 0.000335869847681893
BaseParticle id 10 indSpecies 0 position 5.99920497965203 18.3466504792229 31.6700304262073 orientation 1 1.50365828618984e-17 -2.14503587391659e-17 -2.75950420565213e-17 velocity -1.37040440847847 -0.205188213866906 0.795553141115665 angularVelocity -8.06112527340688e-17 -2.69903800022949e-16 -2.18470132565953e-16 force -5414.49197333553 64728.8635607811 -5277.62606573929 torque -1.03295150211125e-11 4.26911839213062e-11 9.38200628297636e-11 radius 1.3339366569799 invMass 5.02893211604358e-05
BaseParticle id 11 indSpecies 0 position 24.6079476154128 16.0142374903668 22.3632498016655 orientation 1 3.86349588257526e-16 -2.66285734136294e-16 3.18242075541013e-17 velocity 0.413750781445863 2.38771556465994 2.2232339943697 angularVelocity 2.72752542577287e-15 -5.47017627140675e-16 3.09846472201998e-16 force -3620.49064048089 -9734.41724038191 575.980950458874 torque -2.01509919861564e-11 2.74269496003399e-12 -1.5262457964127e-11 radius 0.687199103471638 invMass 0.000367818562128451
BaseParticle id 12 indSpecies 0 position 12.7183580681573 4.80605707746922 10.5775607040946 orientation 1 1.09092997242499e-16 1.06159417580222e-16 -7.85880657283899e-17 velocity -0.727041762024213 1.42398949447269 1.44130260278144 angularVelocity 4.53585568834891e-16 3.99057873568753e-16 -2.91338175859999e-16 force 72.8958882862646 -142.774438184802 -144.510314272097 torque 0 0 0 radius 0.65762079864962 invMass 0.000419715274273973
BaseParticle id 13 indSpecies 0 position 2.56912976800115 16.3379810546405 9.19879827006378 orientation 1 1.25810782004382e-16 2.02935207037591e-17 -8.78644464265409e-18 velocity -0.213212218466652 2.63628125340909 -0.540798193659489 angularVelocity 6.54817010470528e-16 4.9072602071812e-17 8.22627060701694e-17 force -14498.3501811583 -5675.1911126349 -31519.4214712255 torque -4.96811480843462e-11 -1.25623955682386e-11 -3.38218342221808e-12 radius 1.09182611332105 invMass 9.17109017225653e-05
BaseParticle id 14 indSpecies 0 position 24.434292197782 27.7152113962037 25.8930268164767 orientation 1 -1.58824850460454e-16 4.16949965053446e-17 1.43038288701186e-16 velocity -3.53913430769891 -0.251873667720807 0.294276783400053 angularVelocity -1.01267322307463e-15 6.92738147556597e-16 6.89595190137751e-16 force -80360.2461663501 -17654.9188442011 -43997.1278233362 torque -1.37476696693284e-10 6.32098817732185e-11 1.28430599488638e-11 radius 1.08408957292876 invMass 9.36884153208529e-05
BaseParticle id 15 indSpecies 0 position 9.95602179483857 27.9224564892448 10.2374391885238 orientation 1 9.82676431770608e-16 8.63492450799799e-16 -1.43392027753642e-16 velocity 1.13876048593956 -3.88106014127307 -0.0275057592446206 angularVelocity 5.92284245308276e-15 4.87840655542618e-15 -3.49334582869362e-16 force -757.536409256676 -860.112971992271 -2470.25266763049 torque 2.04636307898909e-12 -2.04636307898909e-12 5.11590769747272e-13 radius 0.540300684943515 invMass 0.000756789051947933
BaseParticle id 16 indSpecies 0 position 19.0275874750905 22.4344158951403 21.3572379001805 orientation 1 -7.03628588651935e-17 3.40078774269813e-17 1.46436606976819e-16 velocity -1.91438016881987 1.21818616170344 1.81060578775152 angularVelocity -3.50021579959798e-16 1.26897734661343e-16 7.16350087716361e-16 force 113422.418013952 6722.30203303429 -35150.4877061615 torque 7.6397554948926e-11 6.09361450187862e-11 2.00088834390044e-11 radius 1.39036629638601 invMass 4.4411321918743e-05
BaseParticle id 17 indSpecies 0 position 28.6807901113711 2.89864647105903 29.9595058688579 orientation 1 2.73370823901174e-17 -2.2342151195406e-16 -1.41515298980201e-16 velocity -0.333287569385202 -2.54074226344886 2.14528051124391 angularVelocity 2.09723745053838e-16 -1.39988285189179e-15 -1.0882643371442e-15 force 6205.84553855917 -4745.31583721643 -4449.93531997897 torque -2.50821585723315e-12 1.4829915073733e-11 -8.21387402538676e-12 radius 0.824050429906649 invMass 0.000213314326445161
BaseParticle id 18 indSpecies 0 position 25.9045982310072 11.7313248818269 2.48623713362014 orientation 1 -4.01865696342208e-17 7.31795139025972e-17 -2.68743559779825e-17 velocity 0.226957680295855 -1.23226024464987 3.01873267360337 angularVelocity -2.19158116395434e-16 2.19340480772988e-16 -6.55082236233848e-17 force -13036.7482909836 -35959.0855364819 -3164.26891637547 torque 5.49427170426497e-12 -2.5750068743946e-11 6.05382410867605e-11 radius 0.925251628807512 invMass 0.000150696033093109
BaseParticle id 19 indSpecies 0 position 7.33414711168257 14.3884985216152 1.14370627325859 orientation 1 5.3105242875117e-17 -1.49936963863817e-17 -7.07424699759562e-18 velocity -0.320670412083845 0.595871326813133 -1.31427026038842 angularVelocity 3.76559141931654e-16 -1.19541379371539e-16 -5.30068368979944e-17 force -4916.34882678898 32926.6267205354 22666.2663218666 torque 3.38218342221808e-12 -1.13686837721616e-13 3.63797880709171e-12 radius 1.07971780320656 invMass 9.48310606062648e-05
BaseParticle id 20 indSpecies 0 position 8.03017201554658 8.99486205639732 3.22955075659965 orientation 1 -7.9363184904562e-16 1.05979318797411e-15 -4.26674027824415e-16 velocity 0.719742830471866 1.78673084040457 2.22924265369233 angularVelocity -6.19961472516706e-15 4.52049409340643e-15 -2.23369857724164e-15 force -42828.5140481993 57235.0245657262 -33502.5602444774 torque 2.75690581474919e-12 -1.64277480507735e-11 -4.07425204684841e-11 radius 0.531198571407051 invMass 0.000796362314056511
BaseParticle id 21 indSpecies 0 position 26.9767412711653 24.6395190163561 15.2102932751951 orientation 1 9.06737591695951e-17 -1.29603548655353e-16 6.88865951500702e-17 velocity 1.04515521820523 -0.712166096490458 1.16158856255243 angularVelocity 4.05449299926909e-16 -5.80027684759569e-16 2.51103214103707e-16 force -74459.611936361 75290.3075718058 7604.67874544644 torque 3.27418092638254e-11 1.56305191012507e-10 -8.87609985511517e-11 radius 1.46103510543608 invMass 3.82736112571332e-05
BaseParticle id 22 indSpecies 0 position 28.2382014559223 18.1532853620265 1.1156746771815 orientation 1 -2.8955173519278e-16 -6.1260221275479e-16 -2.54158026710166e-16 velocity -3.57690052279129 4.19919203177712 -1.58298607896972 angularVelocity -1.11374667596751e-15 -3.00624739558264e-15 -1.69224268089983e-15 force -6458.78490659006 -39722.9241345894 -19542.4092385152 torque -3.29691829392686e-11 -6.44320152787259e-11 1.02929220702208e-10 radius 0.966187472952355 invMass 0.000132341845917191
BaseParticle id 23 indSpecies 0 position 31.7285401459688 18.2428198350847 14.5716283477294 orientation 1 7.27099305832047e-17 2.85139876855041e-17 -5.11343283300536e-17 velocity 0.916628767560825 -2.34444988120207 -0.729241568123074 angularVelocity 1.30215498836286e-16 1.82304571251394e-16 -3.5566761392182e-16 force 11949.1619407411 -35434.3220631517 -6922.46697982365 torque 7.82165443524718e-11 -5.91171556152403e-11 -7.105427357601e-11 radius 1.31069948076205 invMass 5.30117343380361e-05
BaseParticle id 24 indSpecies 0 position 10.5133690058576 0.758883304732051 8.15910089529278 orientation 1 2.77364598188549e-17 -1.84313063929351e-17 3.28626012481408e-17 velocity -0.162447824509037 -1.37494925908944 -0.679210355621385 angularVelocity 2.50874422790345e-16 -1.906373526064e-16 3.94778289327646e-16 force 22395.2098777143 -5519.53239868528 -3183.455968601 torque -3.75166564481333e-12 -1.31876731757075e-11 -3.18323145620525e-12 radius 0.825601021455972 invMass 0.000212114681991921
BaseParticle id 25 indSpecies 0 position 3.79388307227832 15.1989066217761 22.8881114680684 orientation 1 -5.30685097506672e-17 -1.17246913733571e-16 -5.17339004550676e-17 velocity 2.01595251159868 -2.19303801461209 -1.38478981110351 angularVelocity 4.50898527354127e-16 -1.88028177210235e-17 -6.00757967843421e-17 force 17256.6010896664 18257.839319561 -22944.6005882325 torque -3.61524143954739e-11 -3.73745479009813e-12 1.46371803566581e-12 radius 0.832247916299619 invMass 0.000207072890395435
BaseParticle id 26 indSpecies 0 position 15.6299225822445 22.6344391384741 17.1484425417651 orientation 1 -4.97704026044997e-16 3.71218277921959e-17 7.15077443031223e-17 velocity -1.88720793968076 1.2098742262958 4.10204136710814 angularVelocity -3.01934099462189e-15 5.83192280836829e-16 7.27855546676007e-16 force -45803.8029546997 11838.317029426 -22766.6886956505 torque 2.45563569478691e-11 -6.2186700233724e-11 -1.24913412946626e-10 radius 0.964099253095594 invMass 0.00013320365933415
BaseParticle id 27 indSpecies 0 position 14.1538078813347 9.31893058674622 10.2135861264757 orientation 1 -1.14454187676973e-17 1.20322640069201e-16 -5.02338515338024e-17 velocity 0.0099232725368523 0.62220552763989 -2.44575047514756 angularVelocity -7.16269964330006e-17 6.71561266813909e-16 -2.27889599012523e-16 force -27218.6912058921 -8331.45619397291 -14661.7431422829 torque -2.33058017329313e-11 -2.44426701101474e-11 7.95807864051312e-12 radius 1.26193224195211 invMass 5.93982001320445e-05
BaseParticle id 28 indSpecies 0 position 13.7099124421889 2.35872790133655 26.0314546391814 orientation 1 -3.35628657470502e-17 -1.17961498425377e-17 -1.82039767917486e-17 velocity 1.67131176917052 -2.7281550761857 0.838591621338217 angularVelocity -1.45051576170002e-16 -3.52319446902736e-17 -1.38375905560946e-16 force -72025.5112982611 -13173.0870069217 -46152.2460524929 torque -2.50679477176163e-11 -6.04245542490389e-11 1.79625203600153e-11 radius 1.41749454576755 invMass 4.19099560656032e-05
BaseParticle id 29 indSpecies 0 position 8.86965482832115 17.2970182162734 16.7160854713738 orientation 1 -1.30049422776422e-15 -3.88552932988301e-16 -1.12358151429935e-15 velocity 0.429661709106294 4.89612509664696 5.26803247325453 angularVelocity -2.61288641872531e-15 -2.44624726981369e-17 -3.7411427530936e-15 force 1867.10240739899 -309.158167618134 -1355.17520822049 torque -1.03739239420975e-12 -1.29674049276218e-12 -2.76756395578559e-12 radius 0.540594133510632 invMass 0.00075555730642456
BaseParticle id 30 indSpecies 0 position 1.26640148167242 32.0391619602244 28.0112644705958 orientation 1 -3.35610808574942e-16 8.14994168165225e-17 -3.85140041026693e-16 velocity -0.805336462407434 2.35592484854556 -1.84546714269993 angularVelocity -2.52599617019627e-15 9.75019138827773e-16 -2.27946480315988e-15 force -14565.3554933005 -5132.18395510339 9941.90601314538 torque -2.95585778076202e-11 4.54747350886464e-12 -4.18367562815547e-11 radius 0.824626619625253 invMass 0.000212867492720119
BaseParticle id 31 indSpecies 0 position 19.6958296629493 14.7243301410206 8.70898198515247 orientation 1 2.26778109421205e-17 1.41325598319113e-17 -6.45866539808591e-18 velocity -1.78853185159131 0.705259735474331 0.6942120580443 angularVelocity 1.46750884287205e-16 6.2531448459551e-17 2.83749053185595e-17 force -2365.72141698594 -18212.0886280433 47369.6805059776 torque 3.00133251585066e-11 2.45563569478691e-11 5.00222085975111e-12 radius 1.48554010970002 invMass 3.64106345896735e-05
BaseParticle id 32 indSpecies 0 position 28.0336493843069 26.6116719469804 32.5566401469567 orientation 1 6.70144201092511e-17 7.15517137798838e-17 -9.99259553105595e-18 velocity -1.90647123883481 -0.573004700503647 1.4332271506144 angularVelocity 3.62802259613913e-16 3.7938663917897e-16 1.12187460606276e-17 force 5385.95068985559 -2555.34464957219 2304.59216357314 torque 5.91171556152403e-12 1.81898940354586e-11 6.82121026329696e-12 radius 1.34923754180853 invMass 4.8597748027883e-05
BaseParticle id 33 indSpecies 0 position 20.1852861126492 24.5007832092465 27.3859659983236 orientation 1 5.52954659446143e-18 -1.57317866979931e-17 -2.66130206128446e-17 velocity -0.393202460110606 -0.141735729224662 -0.0348773550895268 angularVelocity 2.50331694714963e-17 -1.2861779537687e-16 -1.27024644164364e-16 force 2649.95040570283 22481.2608006713 -34963.7202187192 torque -6.0850879890495e-11 -7.89164289471955e-11 -6.47730757918907e-11 radius 1.46241653248443 invMass 3.81652516914287e-05
BaseParticle id 34 indSpecies 0 position 27.1479720318029 14.2356810836976 5.26909057131082 orientation 1 2.46038762941327e-17 -1.30132712776744e-16 3.87113870205983e-17 velocity 1.88240729936167 1.36817024716685 -0.933889883041339 angularVelocity -1.88520759854882e-16 -8.96360556696637e-16 4.72272521304847e-16 force -61075.4147846566 28670.8002307532 -10489.6981547725 torque -3.91082721762359e-11 -6.77573552820832e-11 4.75210981676355e-11 radius 1.10184671953149 invMass 8.92314285830363e-05
BaseParticle id 35 indSpecies 0 position 2.77057479178088 13.7589295260849 1.40174681191664 orientation 1 1.60343529040224e-16 2.4783208443596e-17 3.90057703597385e-16 velocity -0.34385480622555 0.341748347926707 -1.03363522838888 angularVelocity 1.30470331343242e-16 1.30550535054111e-16 1.73787089208902e-15 force -2.34906411493624 -191.687446764337 303.503795100374 torque 7.105427357601e-14 1.4210854715202e-14 2.30926389122033e-14 radius 0.557084607838574 invMass 0.000690427239998816
BaseParticle id 36 indSpecies 0 position 21.0922309083463 12.5559460669584 7.33790548075979 orientation 1 -1.20500738607878e-16 -1.82354700881814e-16 1.38056180931586e-16 velocity 1.02622894402759 -3.20607163727145 -2.36320642100058 angularVelocity -8.86386133321647e-16 -7.84823966739592e-16 1.00443193036924e-15 force 4963.83306633901 113550.00287476 -10035.9121025533 torque -1.6740386854508e-11 -7.00879354553763e-11 -1.33240973809734e-10 radius 1.06162590760586 invMass 9.97623957284756e-05
BaseParticle id 37 indSpecies 0 position 28.4091079307158 14.398832539636 6.3021224059945 orientation 1 -3.84801429184306e-18 3.81930200682557e-17 -3.02419261411634e-17 velocity 3.12977041462101 0.900861827417881 1.33903320846771 angularVelocity 1.3980161968991e-16 2.50067929820696e-16 -3.54129256682351e-16 force 22401.9243293221 -30534.9860956776 -18001.6215670247 torque 1.40971678774804e-11 7.86712917033583e-11 -4.22915036324412e-11 radius 1.24749538512202 invMass 6.1484345156847e-05
BaseParticle id 38 indSpecies 0 position 4.70991493565859 25.3889229913783 3.93514531847827 orientation 1 8.12457118513343e-17 3.82514982501814e-18 -2.97460777365479e-18 velocity 0.900385021963889 -0.388483378810465 -0.0951062965750738 angularVelocity 4.46416184213284e-16 -1.99245728476827e-18 7.86091993999393e-17 force -48102.2282613613 -25095.3309705505 15911.7838358052 torque -6.73026079311967e-11 -6.63931132294238e-11 -7.45785655453801e-11 radius 1.49827420246017 invMass 3.54901217779986e-05
BaseParticle id 39 indSpecies 0 position 13.9275373729696 20.3437718510577 6.14057672868582 orientation 1 -1.2043170842728e-16 5.21312472151086e-17 2.72925821235442e-16 velocity -1.27799052700966 2.03635031468516 -1.73998774623255 angularVelocity -5.5030674159442e-16 2.31474589945053e-16 2.88241706005272e-15 force -13885.4213128871 -10645.1456082664 3946.09498229157 torque 9.59232693276135e-12 -2.31636931857793e-12 3.03224112485623e-12 radius 0.575564759713072 invMass 0.000626035280639282
BaseParticle id 40 indSpecies 0 position 16.1903670967384 15.1604053589353 20.9251277647574 orientation 1 2.27011177579909e-16 -3.05985273822318e-16 -3.6291617677768e-19 velocity 4.7999046952831 -2.11491842925029 1.61187843411429 angularVelocity 2.35180034140394e-15 -1.55226831356187e-15 -1.87233764409921e-16 force 2512.99813042779 -45453.7739281781 9124.74232280179 torque -4.54747350886464e-12 -5.00222085975111e-12 -2.95585778076202e-11 radius 0.893893044075097 invMass 0.000167118574183307
BaseParticle id 41 indSpecies 0 position 11.2487917842156 13.4508968534537 6.06645860647047 orientation 1 -1.58884173033489e-16 8.82187891333612e-17 2.34410711661386e-16 velocity 0.846368308629835 -0.939032315469146 0.244361771048035 angularVelocity 5.12219791419336e-16 7.63712171542888e-16 9.63766280098188e-16 force 44185.0919525492 -40232.9880744213 -23793.5736753561 torque 6.00266503170133e-11 2.63753463514149e-11 7.27595761418343e-12 radius 0.819048466795079 invMass 0.000217246400755138
BaseParticle id 42 indSpecies 0 position 3.8825783641985 27.0545918007039 28.4673136561945 orientation 1 1.16825620861366e-17 -1.86783929971392e-17 -4.24427174509118e-17 velocity 2.10080635731768 0.042983069696844 -0.948950955403654 angularVelocity 1.98835647831992e-16 1.66513043665577e-16 -4.11767054368826e-16 force 65616.0160720839 -14472.3902548938 -24753.3517562954 torque -3.33102434524335e-11 -1.24316557048587e-10 -5.57065504835919e-12 radius 1.36486121559063 invMass 4.69478724968991e-05
BaseParticle id 43 indSpecies 0 position 27.9445086352049 23.7677081117409 16.5877051335307 orientation 1 -2.98662089286802e-16 -2.79192979551139e-15 -2.04335384473834e-15 velocity 3.9855284078606 1.54966503115036 4.25145790046303 angularVelocity 1.55945048459891e-16 -8.92711497611244e-15 -1.31783423841354e-14 force -111.220324375724 2198.01744820761 46067.5190905674 torque 6.93844981469738e-12 -5.6843418860808e-12 -1.00897068477934e-12 radius 0.663417088646985 invMass 0.000408809926627803
BaseParticle id 44 indSpecies 0 position 18.3795806460828 9.0822044093836 6.6475062852353 orientation 1 -7.80163858622333e-16 -1.46146654847782e-15 2.16510491314125e-15 velocity 3.90139053107208 -4.16882163852959 -0.780195926590739 angularVelocity -2.64349207062833e-15 -4.35213930021405e-15 5.36600796148363e-15 force 25283.4663932744 24514.6477894397 20239.029815553 torque -1.10276232589968e-11 -3.47881723428145e-11 6.48014975013211e-11 radius 0.583709846172752 invMass 0.000600192186772178
BaseParticle id 45 indSpecies 0 position 27.8099522652891 26.0555187621048 18.1649694185012 orientation 1 -7.03799169907171e-17 -2.2101413307486e-16 4.95762665581523e-16 velocity -3.25066103088218 3.37037914560726 0.599988020531812 angularVelocity -1.08878176388126e-15 -1.39993750138317e-15 6.75818277355217e-16 force 97266.9237283177 -45673.0540541241 27008.540268592 torque 4.66968685941538e-11 9.43600753089413e-12 4.88711293655797e-11 radius 0.873731049360958 invMass 0.000178956751282515
BaseParticle id 46 indSpecies 0 position 31.1716636800497 31.2041114516279 14.4869719661881 orientation 1 -2.36779232264076e-16 7.09338252359012e-17 1.43247186424593e-16 velocity -0.32947259147229 2.32352349779583 -1.52788176151359 angularVelocity -1.25362515661429e-15 -4.26066639523722e-16 8.32962315515914e-16 force -4126.06116275836 49773.2938357602 65123.6753468705 torque -5.45696821063757e-12 -6.00266503170133e-11 -5.77529135625809e-11 radius 1.2009974078266 invMass 6.89057056972714e-05
BaseParticle id 47 indSpecies 0 position 13.9687058883521 19.0622499151333 18.57668993568 orientation 1 -1.39419430043728e-17 1.26576603802346e-17 6.57731280947435e-18 velocity -0.470776182574686 -1.09618215682683 -0.570072238511105 angularVelocity -1.46757843793066e-16 7.63376100888792e-17 1.62930303775863e-16 force 35357.0418311544 1186.34276929423 -45494.0622327189 torque -4.35420588473789e-11 2.94448909698986e-11 1.72803993336856e-11 radius 1.46651561840762 invMass 3.7846116097688e-05
BaseParticle id 48 indSpecies 0 position 0.83710310183594 25.5314310071712 27.3763811763286 orientation 1 -1.33030546855583e-16 -1.59449681021405e-17 -1.16171375559426e-17 velocity 0.269029110018967 1.20002657230415 1.51553080786966 angularVelocity -1.77176182306591e-15 -3.10659184349936e-16 -5.05599526950796e-17 force 4695.2727184055 -8933.00872274895 -8784.86734467978 torque -1.52340362546965e-11 1.13686837721616e-13 -2.48689957516035e-13 radius 0.767184714537873 invMass 0.000264351373400079
BaseParticle id 49 indSpecies 0 position 1.73267260396713 8.62030537348769 17.5400269375722 orientation 1 2.23736730288742e-17 1.74093503072756e-17 5.97359084715744e-18 velocity -0.734382036497155 1.27146196724613 1.56070372288903 angularVelocity 7.21697431312764e-18 5.62002680554193e-17 4.75706094086583e-17 force -34009.4117154673 -14617.1989001627 35230.7337274308 torque 8.18545231595635e-11 7.95807864051312e-13 -9.09494701772928e-13 radius 1.38163590721634 invMass 4.52585421359875e-05
BaseParticle id 50 indSpecies 0 position 20.6343985262301 18.0269022132137 8.86712408519647 orientation 1 -6.592696136927e-17 -1.14192478813588e-17 7.46920657464519e-18 velocity 0.243275907670678 -0.778827335142502 0.263206016244151 angularVelocity -4.67837945801389e-16 -6.96385812103574e-17 3.31882426553302e-16 force 10859.1825135951 50864.8126165761 -13365.4962404514 torque -1.46087586472277e-11 -3.68061137123732e-11 1.150972650521e-10 radius 1.15450992653658 invMass 7.75690336322573e-05
BaseParticle id 51 indSpecies 0 position 1.9482854543256 12.0784555424766 3.93971322918138 orientation 1 -7.77310721668818e-18 -6.64036943857081e-17 -4.7387899976953e-18 velocity -0.169658592968089 -0.123184237497413 2.14875230356313 angularVelocity 4.78918238982812e-16 -4.67090981112441e-16 5.89739544399041e-16 force 24855.3973875294 -31744.0591266754 -35139.8410907071 torque -1.52340362546965e-11 8.29913915367797e-12 -7.73070496506989e-12 radius 0.654171871809129 invMass 0.000426388807414837
BaseParticle id 52 indSpecies 0 position 16.9309795715085 11.0296294389167 10.5625148501321 orientation 1 -3.98334102101651e-18 4.73026494586589e-18 -9.68943018936568e-18 velocity -1.02873932495844 0.293527223001311 0.240663294494686 angularVelocity -5.32342056684658e-17 4.4483296341871e-17 -9.80958637788669e-17 force 9884.21334714686 34611.2322316143 77674.7883216823 torque 7.20774551155046e-11 4.36557456851006e-11 7.18500814400613e-11 radius 1.47886354757579 invMass 3.69060089317882e-05
BaseParticle id 53 indSpecies 0 position 20.8915448112427 30.5832412907194 9.09005705260076 orientation 1 -7.39728768156023e-18 -5.11876807950538e-17 -8.81968692929132e-17 velocity -0.506269015300769 0.785429849314778 -1.29799118019721 angularVelocity -5.34378424282852e-16 -1.61437746016763e-16 -2.65375672760717e-16 force 44717.2001308548 93001.5181342148 -26838.0177494459 torque -8.41282599139959e-11 6.9576344685629e-11 1.85536919161677e-10 radius 1.08629331217493 invMass 9.31193804164869e-05
BaseParticle id 54 indSpecies 0 position 7.5376085407003 24.6386223669538 17.0297373960228 orientation 1 3.88514105348125e-18 -2.55703385650189e-18 -6.40683471847553e-19 velocity -0.0336366823688079 -0.0807663463035071 0.117819487845432 angularVelocity -1.77099240053812e-16 -6.95389671397738e-17 -9.59287550291483e-17 force -806.360500987921 -1997.74773283637 2791.16727155151 torque -2.04636307898909e-12 1.02318153949454e-12 1.13686837721616e-13 radius 0.521663422676117 invMass 0.00084083394393331
BaseParticle id 55 indSpecies 0 position 18.6655022418212 8.42188744406027 19.4407075703953 orientation 1 -9.64525074368184e-17 -4.5467834467484e-17 -2.15425826574329e-17 velocity 1.48489063224401 -1.06823664545779 0.305146081804511 angularVelocity -4.50871391126184e-16 -9.31996225483186e-17 -2.54650600443121e-16 force -17896.2734178759 -5400.75064402052 -19013.7641369674 torque 4.76063632959267e-11 4.56381599178712e-11 -3.44240191907375e-11 radius 1.41913487304083 invMass 4.17647973182967e-05
BaseParticle id 56 indSpecies 0 position 17.0885319613597 31.1489256795453 7.42972192437986 orientation 1 7.69444395036255e-16 -9.03674832078525e-16 6.70039481486476e-16 velocity -1.7103706100806 3.57553730270757 2.8160969073165 angularVelocity 4.1974196524665e-15 -3.43312419538175e-15 2.94950023421832e-15 force 171.48851494876 -358.497496724597 -282.353002174625 torque 0 0 0 radius 0.651729742855085 invMass 0.000431200018953722