restart_version 2
name H10A14L0M0.5B0.5
xmin 0 xmax 20 ymin 0 ymax 10 zmin 0 zmax 12
dt 0.0001 t 3000 tmax 3000 save_count 200000
dim 3 gravity 0.2419219 0 -0.97029573
options_fstat 0 options_data 0 options_ene 1 options_restart 2
Species 1
k 200000 disp 25 kt 57142.857 dispt 25 mu 0.5 rho 1.9098593 dim_particle 3
Walls 1
numFiniteWalls 0 normal 0 0 -1 position 0
WallsPeriodic 2
normal 1 0 0 pos_left 0 pos_right 20 shift 20 0 0
normal 0 1 0 pos_left 0 pos_right 10 shift 0 10 0
Particles 2000
12.70434 9.146244 3.1182474 8.5837337 0.91804791 -0.20345601 0.5 1.2496964 205.9681 -36.817933 0.59679645 -0.67743673 0.80884683 1 10 0 
18.234358 9.8198433 1.4339914 8.6876381 0.42505111 -0.35313343 0.5 42.81234 -135.49236 16.309712 0.47333233 0.19010316 -0.22887634 1 10 0 
6.2344786 3.4424909 2.3001325 8.3696409 1.2178205 0.23752416 0.5 66.988497 298.68177 -28.128334 0.27258581 -1.0811186 -0.85196849 1 10 1 7.479003e-06 3.6777069e-05 5.4318334e-06 0 -1 2534.3035 
4.6298006 0.91275241 3.1890965 7.9126765 0.73430241 0.055306735 0.5 -5.6666817 206.92627 -9.0779509 1.0118735 -2.0985741 1.1897556 1 10 1 -4.2639527e-05 2.2297698e-06 2.2938845e-05 2 -1 2398.8263 
4.4146129 9.9310195 4.8960384 8.8785746 0.58348299 -0.016613737 0.5 77.613088 18.378164 15.892028 -0.58831449 0.093604222 -0.044495435 1 10 0 
6.5973701 7.1802537 2.2987361 8.8613024 0.97011206 0.27081469 0.5 27.508265 358.78973 -19.328587 0.033716093 0.70370435 -0.66094886 1 10 1 -7.0170997e-06 7.3487174e-05 2.7030033e-05 0 -1 2824.324 
5.7202312 5.867144 1.4766833 8.2678868 1.2239381 -0.14178006 0.5 -6.0046458 -25.023991 25.040479 -0.95373581 -0.25926746 0.16044428 1 10 1 5.8910587e-05 1.2410322e-05 -3.5095021e-05 5 -1 2794.3549 
1.9626211 5.7259582 4.9029249 8.7605129 0.76384829 0.19576843 0.5 27.836659 3.4994516 -7.1867728 -0.58185349 -0.55939612 0.13835126 1 10 0 
9.8717619 0.62424337 0.50455172 4.260692 0.76634128 1.409048 0.5 -2163.1873 20639.063 -20.771218 0.40340866 10.920563 -1.0551641 1 10 1 -9.9796694e-05 8.057626e-05 0 -1 0 2999.9967 
3.4527229 0.11815938 1.5052503 9.1509015 0.57349245 0.24494512 0.5 -24.204683 -108.56022 24.36804 -1.164976 -1.2664886 -0.8024486 1 10 1 0.0001212982 4.6538193e-05 4.9660417e-05 8 -1 2970.3262 
3.7289122 3.5898024 3.134043 8.321857 0.68367273 0.062052321 0.5 8.0885262 236.72833 -8.8590029 0.59674892 -0.01984695 -0.2461927 1 10 1 -9.1164503e-05 5.4379874e-05 5.8685539e-05 5 -1 2409.1801 
18.641965 1.4943033 3.0955168 8.7995425 0.83709451 -0.56296413 0.5 15.002631 243.57486 -15.145945 0.41117352 -0.38256907 0.19072106 1 10 1 -7.8788709e-05 4.9595424e-05 6.6712422e-05 5 -1 2645.2877 
9.4532343 9.3579534 2.2881078 8.4833907 1.1925601 0.58206551 0.5 28.673274 423.86749 -24.977848 -0.02399689 -0.1173505 1.1557894 1 10 1 2.8958569e-05 -6.9903258e-05 -4.7623558e-05 0 -1 2972.7045 
5.9901481 5.2554486 2.3364579 8.7104258 0.97678536 0.056401768 0.5 22.742149 412.77441 -25.718223 -0.21249821 -0.38278183 -0.02528734 1 10 1 5.499542e-05 4.46665e-05 1.8340983e-05 6 -1 2999.2348 
5.9052625 7.9983883 2.3739168 8.2001938 0.32784202 0.044929532 0.5 36.773082 359.2953 -55.474223 -0.78174031 0.26652973 0.020658194 1 10 1 -8.7201144e-05 -7.6446586e-05 0.00013230565 5 -1 2999.8973 
6.1633273 1.9408484 4.8619104 8.7177791 0.71994751 0.027054618 0.5 33.925474 -0.77293881 -16.951481 0.9219368 0.23331918 0.16376308 1 10 0 
13.896727 4.665389 3.0881601 8.8737573 0.8452481 -0.13011646 0.5 -8.9947289 168.55252 -16.589403 0.37986393 0.24257282 -0.6746051 1 10 1 7.8375245e-05 2.3819062e-05 -5.6104471e-05 2 -1 2947.2081 
14.258259 8.9831413 3.9138752 8.8055546 1.0935071 0.047803956 0.5 22.084137 141.43738 -27.619482 -0.5342581 0.46257035 -0.032830286 1 10 1 -2.6373935e-05 -1.6515702e-05 1.237812e-05 0 -1 2983.2999 
8.8067161 3.9385486 0.51139661 3.9718753 0.75971066 0.091517493 0.5 -2194.7491 20350.952 11.602831 -5.6800394 3.7148355 -1.5164385 1 10 1 1.4021934e-05 -1.2727384e-05 0 -1 0 2999.8517 
0.098480976 7.2722131 1.4461255 8.6612159 -0.11449981 -0.5591988 0.5 -128.5324 1829.5565 22.49222 0.74652945 0.49761541 0.80677841 1 10 1 5.2594134e-05 -3.1755181e-07 1.0880668e-05 18 -1 2992.1224 
19.745466 7.6729373 4.0152015 8.912554 0.61853236 -0.10594577 0.5 54.372748 159.96468 -16.357744 -0.54900325 0.70995649 -0.31550952 1 10 1 9.6787804e-06 -3.284151e-06 -4.6441887e-06 16 -1 2732.2476 
0.5856059 2.0794955 2.3177477 8.7885548 0.89574092 -0.085822455 0.5 40.881279 385.1965 -28.79339 -0.98371155 -0.21441076 -0.51836082 1 10 1 -4.072614e-05 -2.4985603e-05 2.9725023e-05 9 -1 2851.5746 
5.2049093 6.0974912 2.3246329 9.2170933 1.1188917 -0.052441715 0.5 53.592636 388.82941 -55.179754 0.58750678 -0.38867287 -0.98318469 1 10 1 -5.7452493e-06 -4.2402125e-06 -2.9010484e-06 6 -1 2999.7377 
7.5523263 3.7400032 0.49887984 5.2410611 0.75153781 -0.39056744 0.5 -2305.365 20396.176 7.1773109 1.4523247 5.9909066 0.53677569 1 10 1 0.001713043 0.0011228993 0 -1 0 3000 
7.5256146 3.0331414 4.8244598 8.8944501 0.77971787 -0.068802506 0.5 31.98379 -7.7205012 4.0460529 -0.21606564 0.45567621 0.21878007 1 10 1 7.5811389e-06 -5.920875e-06 -5.4335445e-06 20 -1 1688.6483 
6.676674 1.7181852 4.0225983 8.8390656 0.79391338 0.46675619 0.5 53.736773 165.90687 -16.023287 -0.15163643 1.3056318 -0.48571956 1 10 1 3.8101931e-06 -5.3773068e-06 3.9390359e-06 15 -1 2999.7631 
5.4710659 8.3732912 3.1921624 8.7230845 0.93955464 -0.034638335 0.5 -1.0297885 210.8394 -24.634502 -0.035392528 0.50741454 0.16428608 1 10 1 0.00065312216 0.0010436944 -0.00013162382 14 -1 3000 
4.0748623 8.963057 4.9151864 8.495146 0.64504478 0.54773918 0.5 -7.5952763 7.8684004 10.986043 -0.64610599 -1.0827339 -0.24472878 1 10 1 7.1923625e-06 -2.9492935e-07 5.7264076e-05 4 -1 2999.7678 
13.917049 4.116048 1.4881348 8.920172 0.94219143 1.0692528 0.5 -9.4156429 -142.28385 18.681547 -2.0732362 -1.3056099 0.69040384 1 10 1 -6.8473988e-05 5.7292208e-05 1.9043904e-05 18 -1 2998.7483 
14.789629 9.3325661 3.1077141 9.0912148 0.79040982 -0.33130923 0.5 -2.5927067 205.51238 -57.379352 0.88840663 -1.0112173 0.092797922 1 10 1 8.8581023e-06 -8.7364622e-05 -3.2351282e-05 17 -1 2999.7924 
10.367726 0.67592012 3.1576568 8.6842684 0.93189675 0.043833345 0.5 3.6952297 227.05426 -24.025113 0.47370757 -0.12856825 -0.27065398 1 10 1 -1.4344167e-05 -4.2752284e-05 -2.4485682e-05 12 -1 2857.7751 
14.39968 8.4041197 4.7374433 8.9213635 1.11866 -0.27299906 0.5 26.439855 9.5403356 -9.2220986 -0.056969579 0.037316892 0.26626773 1 10 1 -2.5557381e-05 -3.3842965e-05 -2.1882743e-05 17 -1 2999.6629 
2.3626849 2.5611788 3.1808911 8.319042 0.72001971 -0.32407264 0.5 0.6522335 227.30585 -19.962053 0.09412015 0.6773779 0.69840882 1 10 1 -9.443663e-06 -3.7801873e-05 2.2440496e-05 21 -1 2978.3703 
18.369544 5.3512427 1.4928366 9.1254073 0.59962308 -0.10008629 0.5 -6.2560026 -152.73509 -9.2684683 -1.3764075 0.086317222 0.015708003 1 10 1 -0.00013445439 -3.9328087e-05 -1.2187193e-05 23 -1 2997.2786 
11.433481 7.0151128 0.52639935 5.4770432 0.77690408 -0.46434581 0.5 -2482.3582 19829.435 -18.053848 -3.0821338 4.6974293 -2.6616702 1 10 1 -4.1726867e-06 4.2042931e-05 0 -1 0 2999.7447 
15.131575 6.3452614 2.301008 8.7238754 0.81014908 0.052444699 0.5 56.849524 372.34086 -32.386617 -0.47076861 0.67482005 -0.37252074 1 10 1 -4.6557951e-05 -3.8627751e-05 -1.5963741e-05 6 -1 2889.7098 
9.7827048 1.504876 4.8195029 8.7439491 0.89136483 -0.039394358 0.5 25.716495 37.165376 0.17529707 0.27345334 0.14822975 0.60932694 1 10 1 -4.7445893e-06 -0.00012835708 6.0997871e-06 25 -1 2970.2479 
6.3844462 5.0315076 1.4151299 8.5114806 0.47104199 -0.31265876 0.5 -5.0576931 -161.05697 -11.815075 -0.18475206 0.98232468 -0.74166246 1 10 1 -0.00016737072 -0.00016671301 -5.6166974e-05 13 -1 2999.8771 
3.1634733 3.1274417 2.258805 8.6040145 0.4568826 -0.13741842 0.5 51.035187 419.75378 -27.975136 -0.50117032 0.25739814 1.0149194 1 10 1 -3.195207e-05 -2.4831268e-05 3.2651499e-05 10 -1 2998.714 
8.5955562 5.9136651 4.8101617 8.8949289 0.94043817 0.377689 0.5 12.964741 -0.19039481 23.706626 0.55842668 0.13546913 0.30215084 1 10 1 -3.5977298e-05 6.9567426e-07 2.2544033e-05 25 -1 638.4529 
0.1804343 1.1630057 2.2597725 8.6576545 0.4947906 -0.35956719 0.5 25.018836 399.03838 -32.946777 -0.16447647 0.81860587 -0.34378608 1 10 1 4.7035943e-05 -1.6164705e-05 -7.474073e-05 21 -1 2999.9917 
7.8462222 7.2617986 3.9894729 9.2857367 0.7414192 0.14160454 0.5 29.03794 156.57528 -10.447901 0.49607862 0.55259269 0.16787962 1 10 1 1.0939974e-05 4.6814514e-05 7.0463446e-06 16 -1 2649.748 
6.3843092 3.4913661 4.00718 8.9010779 0.89943942 -0.077621647 0.5 52.448269 165.62024 -26.344513 0.1042581 1.0599502 0.36783698 1 10 1 1.8588666e-05 4.2444584e-05 5.6697349e-06 24 -1 2978.2571 
11.502568 9.555869 2.314737 9.3790755 0.91170748 -0.15675941 0.5 48.946984 211.59447 -33.500351 -0.056271516 -0.60048189 0.26752427 1 10 1 -5.1109662e-06 9.1643821e-06 7.6594355e-06 0 -1 2979.9786 
19.56579 4.0347993 0.55499574 4.2976072 0.38602455 -0.94351767 0.5 -2304.7355 20355.729 50.091411 1.9698152 9.1207441 1.0673397 1 10 1 -0.00010517633 7.5831545e-06 0 -1 0 2999.7345 
10.948203 7.0828178 3.1556993 8.6141238 0.66660891 0.051034825 0.5 -0.82808938 222.3054 -13.188269 0.71199742 -0.52508468 -0.18779846 1 10 1 4.2871434e-05 5.288934e-05 5.6786849e-06 5 -1 2968.2614 
15.518851 6.4482524 0.50559497 4.3782308 1.248228 -0.39173283 0.5 -2135.3514 20199.515 -112.78802 -2.236154 10.721221 -0.59246071 1 10 1 -8.3324505e-05 -0.00010808306 0 -1 0 2999.9073 
2.7170258 2.2287299 2.2996654 8.5002964 0.88194797 0.49620078 0.5 12.213402 363.146 -11.32647 -0.62431603 -1.8038915 0.25587235 1 10 1 -3.0251783e-06 -8.98296e-08 -3.2466079e-05 38 -1 2999.9598 
1.3589383 6.523621 4.9105365 8.8792019 0.55135086 -0.011510093 0.5 31.794094 -11.882147 9.2339083 0.63609572 -0.20462857 0.34855808 1 10 1 1.3296426e-05 1.0369028e-05 -2.7055999e-05 7 -1 2999.9601 
6.7539129 4.4228647 3.9932533 8.6896214 0.91884915 0.064220932 0.5 35.183586 156.73886 -18.57049 1.1868278 0.48471665 -1.0036629 1 10 1 7.608273e-05 -3.0077654e-05 -1.5092202e-05 42 -1 2999.7676 
1.7271006 7.7279413 0.50455806 5.0940038 0.63498959 0.70521466 0.5 -2253.5592 19770.035 1.724734 -1.544139 8.8028306 -0.40006757 1 10 1 5.4969996e-05 -4.653709e-06 0 -1 0 2999.9929 
8.0711361 5.5470177 3.9812359 8.9277225 1.1014757 -0.087892657 0.5 48.495872 143.09009 -20.483922 0.72181289 0.91354976 -0.62787734 1 10 1 -2.2212846e-06 -9.280214e-07 1.786596e-06 39 -1 2997.1463 
11.22026 9.2843516 5.600897 8.916598 0.7613656 -0.11810795 0.5 -21.963858 48.275584 14.814623 0.50141213 0.30493389 -0.26754406 1 10 1 -7.29223e-06 4.0221924e-05 2.0177156e-05 4 -1 1760.5599 
14.60406 9.9239614 2.3013926 8.4441436 0.5231799 -0.07458621 0.5 36.687911 237.25963 -17.43174 0.99356973 1.2878661 -1.2257735 1 10 1 -1.0815422e-05 -2.7891422e-05 -1.9254107e-05 29 -1 2999.8776 
12.21897 8.7478818 3.954944 8.8952925 1.085744 0.062845292 0.5 23.464493 140.04582 -30.968934 0.06271342 -0.64139674 -0.215491 1 10 1 -6.9504279e-05 0.00013324626 2.1845584e-05 0 -1 2999.8412 
0.27098998 3.6465509 4.891053 8.9096074 0.31513984 1.3217061 0.5 18.429003 -18.960934 4.9377761 0.37247587 -1.0382234 -0.34973525 1 10 1 -8.2476858e-07 -3.8016453e-06 -2.5365512e-06 17 -1 2764.5668 
1.7199408 3.4519388 3.1720239 8.4566509 0.65051008 -0.33988574 0.5 -19.329359 209.4195 -44.28659 0.11544283 -0.33701518 0.081836529 1 10 1 1.6571716e-05 1.198439e-05 -7.2816117e-07 32 -1 2999.5676 
4.9809657 5.1235878 2.3418594 9.0602952 0.86027404 -0.28970611 0.5 45.047059 396.20654 -27.434904 -0.046428687 -1.0195734 -0.22379632 1 10 1 -0.00046886023 0.00010489047 -0.00016515469 22 -1 3000 
3.6394071 6.1332646 0.51911712 4.2032384 0.68755686 1.054279 0.5 -2242.0272 20416.949 -69.070534 -3.1747248 6.2423662 1.2916058 1 10 1 5.6975164e-05 -2.0235954e-05 0 -1 0 2999.9845 
14.480452 0.50581102 1.4163842 8.5163465 0.28559852 0.98500393 0.5 25.492403 -148.91034 -26.202862 1.4166878 0.31383175 -0.053163663 1 10 1 9.2071723e-06 -6.8188579e-05 -4.6712642e-05 53 -1 2999.8408 
12.036666 3.2927268 3.9444692 8.5849105 0.52550628 0.20185883 0.5 31.231097 157.65125 -21.383696 0.24083951 0.04654247 -0.03101224 1 10 1 -2.1743348e-05 2.1563864e-05 2.0730974e-05 32 -1 2900.5789 
10.273354 6.8448485 0.50434036 3.6359942 -0.018953955 0.12986699 0.5 -2314.8168 20223.789 -43.696733 -1.3454681 7.5526145 0.52764913 1 10 1 -2.4341065e-05 -2.5998426e-05 0 -1 0 2999.9718 
7.0521711 5.4031138 3.974561 9.3371089 1.1042141 0.14001803 0.5 27.302519 152.57825 4.2383684 0.92530458 0.26823521 -0.44693109 1 10 1 3.1428599e-05 -1.0090353e-05 -1.2961361e-05 49 -1 2999.9255 
14.836263 2.1137621 4.747954 8.7548201 0.82590458 -0.074148652 0.5 14.09687 46.859576 -5.1936191 0.14638301 0.12362839 -0.1019492 1 10 1 1.1126721e-05 3.8976906e-05 1.1537855e-05 60 -1 2971.4544 
14.669181 5.9717411 1.4865158 8.4363409 0.9876797 -0.3233666 0.5 28.538457 -117.45234 -15.071765 0.55384511 -0.12196001 0.5102189 1 10 1 4.3114786e-05 -8.3672801e-05 1.8123519e-05 35 -1 2999.705 
7.8591499 8.4133202 0.53680185 3.8720664 -0.24598111 1.5167062 0.5 -2335.4252 19937.589 48.010784 1.3434411 11.45388 -1.116467 1 10 1 -0.00016075482 3.084762e-05 0 -1 0 2999.9723 
6.1711724 7.4527594 3.1754167 8.4808759 0.75247435 0.15639838 0.5 -7.9523712 220.29511 -22.392749 0.32053556 -0.73989303 0.45217483 1 10 1 2.7820538e-07 -1.2330944e-05 3.84021e-06 5 -1 2999.9483 
1.4075836 6.6780192 2.2449425 8.8287623 0.71091651 -0.19236359 0.5 31.801366 360.69664 4.4108697 -0.818705 0.13843187 0.050007548 1 10 1 7.1589469e-05 -1.7025586e-05 -5.4935788e-05 19 -1 2977.7528 
13.979204 1.8065797 0.52652207 5.4426275 0.47204859 0.98405225 0.5 -2071.3412 20193.197 -1.1597833 -1.3809353 9.061604 -1.862067 1 10 1 4.8211101e-05 -1.1605354e-05 0 -1 0 2999.9733 
6.9396455 6.5713523 0.54295031 4.1125784 0.46106759 0.28083473 0.5 -2242.0769 19987.694 26.908671 -1.212401 9.9037684 0.3530802 1 10 1 -8.680168e-05 2.4542253e-05 0 -1 0 2999.9504 
8.4314166 0.37665265 4.8305654 8.7914792 0.8261401 0.37584801 0.5 5.7386459 -11.3459 6.8607831 -0.16571657 0.23195896 -0.001733026 1 10 1 1.4071359e-05 1.2899932e-05 -6.2653129e-06 20 -1 2614.195 
0.94144112 2.0828723 4.0326717 8.6675978 0.63234385 -0.09659082 0.5 33.665402 150.86972 -16.367094 -0.079864379 0.066233516 -0.0030668609 1 10 1 2.0027492e-05 2.184004e-05 -1.6484216e-05 11 -1 2978.2948 
7.7567357 0.0078689217 2.3460257 8.401241 1.0650777 0.63972094 0.5 29.444735 405.71564 -7.3154512 0.71954734 1.0908157 -0.8013358 1 10 1 0.00026080882 0.00012128085 -0.00010337352 30 -1 2973.5734 
13.734334 8.6108694 1.4582712 8.1173388 0.8835578 0.3350928 0.5 5.9584699 -104.65302 14.651186 2.362615 0.89181132 0.93341982 1 10 1 9.4105805e-06 1.4085171e-05 5.4022283e-06 65 -1 2998.5998 
4.2437558 9.9864243 3.2088314 8.5447341 0.74127251 -0.060952869 0.5 -33.758384 195.42665 -39.041891 0.049077751 0.20608155 1.0334332 1 10 1 -2.3421007e-05 9.6621915e-06 -2.4475038e-06 3 -1 2999.8688 
12.332512 0.75503211 0.53308769 4.3910641 0.59902331 0.28054534 0.5 -1901.1044 20375.35 -36.976413 -2.9326537 10.3736 -0.89753694 1 10 1 -9.9009554e-05 2.1024372e-05 0 -1 0 2999.955 
12.140075 2.0519195 1.4639018 8.7646144 1.0299494 -0.47957146 0.5 3.2333348 -177.19062 27.78444 0.57871903 -0.21984786 0.47163763 1 10 1 -1.4776262e-05 4.0411485e-06 2.4655654e-06 8 -1 2994.4433 
13.519481 7.0919475 2.2988427 8.9079174 0.20910445 0.052210955 0.5 46.188141 402.87703 -26.567701 -1.947663 0.5376324 -0.44513943 1 10 1 0.00013983123 -6.4112082e-05 -4.3993268e-05 26 -1 2906.9041 
19.197419 7.9303396 3.136392 8.9550447 0.78441927 -0.12811337 0.5 -21.10262 184.90895 -18.93211 -0.25511814 0.24083933 -0.11287663 1 10 1 -2.7381649e-05 9.7202715e-05 4.1095438e-05 20 -1 2999.7839 
5.459835 5.5502623 3.1406855 8.6649397 0.88268897 -0.34046168 0.5 0.49491892 391.30154 -37.731063 -0.073915667 1.6820465 0.16157906 1 10 1 -9.3205261e-05 -0.00012494648 -9.3717933e-06 13 -1 2999.8886 
10.240764 7.9541163 3.1245564 8.8152023 1.0802555 -0.42582825 0.5 -18.334005 242.74398 -29.701527 -0.31939965 -0.15216413 0.29163805 1 10 1 9.3525599e-05 6.4058726e-05 0.00012415189 45 -1 2984.4464 
13.39422 7.6484461 1.4697492 8.7988605 1.4026475 -0.41881995 0.5 29.226211 -109.42451 -22.165808 -1.3789691 -0.068199273 1.1052415 1 10 1 1.7790273e-05 6.9118151e-05 4.3430492e-05 77 -1 2999.9932 
10.083713 1.8480591 1.4301205 9.1960804 0.73218047 1.2126668 0.5 -65.460887 -120.39576 29.030071 1.681934 -1.8054071 0.14636779 1 10 1 0.00010383956 1.8484427e-05 -2.2535844e-06 75 -1 2995.5792 
8.0760522 4.7739576 0.52268858 4.7403135 0.28205361 1.128395 0.5 -1964.4497 20233.667 -60.38498 -3.6009912 11.174701 -0.85498358 1 10 1 -6.0138165e-05 -0.00010728067 0 -1 0 2999.98 
4.8197044 2.3837218 2.2872335 8.9316685 0.52689488 0.3252808 0.5 22.379589 347.04315 -38.413297 -1.6902276 1.2807745 0.11601202 1 10 1 -3.8417694e-05 -3.6673947e-05 1.1587977e-05 56 -1 2886.3684 
4.7018218 5.7071017 1.5509543 9.0524717 1.1949961 -0.33746417 0.5 -18.672251 -62.209297 -50.45866 0.15094822 0.10345892 -0.95811005 1 10 1 5.783154e-06 7.2164772e-06 -7.459946e-06 22 -1 2999.9895 
17.643246 6.6518336 0.52255198 4.6281004 1.6322958 -0.53410474 0.5 -2198.8723 19660.226 -41.781 2.771063 10.55155 1.2349728 1 10 1 -0.00011654361 1.6520125e-05 0 -1 0 2999.9541 
16.819521 8.880013 1.422117 8.7866694 0.8596263 -0.16237097 0.5 2.8140417 -159.33434 2.4225332 0.31811573 -0.053621441 0.5582815 1 10 1 3.3428941e-05 9.2874013e-05 5.2079578e-05 50 -1 2996.3576 
0.9762134 5.5594414 4.8767402 8.8497613 0.88354178 0.11547582 0.5 25.053062 26.36191 4.9250796 -0.17367248 -0.17553868 -0.26657551 1 10 1 2.6129424e-06 -1.4703349e-05 -2.87827e-05 7 -1 2999.7937 
18.033678 2.3498554 3.0854346 9.035774 0.65923125 -0.34158801 0.5 11.488385 210.24217 -38.177509 -1.2453343 -0.093173226 -0.73064574 1 10 1 -1.8601129e-06 -1.2658981e-06 -9.8081664e-06 11 -1 2998.3631 
1.9568967 4.427256 3.1456678 9.0722946 0.42045162 0.050059994 0.5 -7.9028584 224.54615 -10.614279 0.047954107 0.77539238 -0.14996053 1 10 1 4.3105393e-05 -9.388875e-06 1.5669386e-05 56 -1 2999.9794 
17.659026 7.3698278 2.366926 8.7339691 0.1756426 0.055498604 0.5 42.281318 355.28284 -61.552142 -1.0576753 0.30012564 -0.69165164 1 10 1 3.2829207e-05 -3.7766255e-05 1.0235976e-05 78 -1 2978.1176 
9.9745122 6.9664102 4.8173386 8.6712436 0.72100214 -0.11591782 0.5 32.753564 -19.279529 9.2416236 0.028680797 -0.13318736 -0.13862537 1 10 1 1.5673486e-05 -1.9354374e-05 -2.9933416e-06 41 -1 2973.8227 
8.1715082 4.2613763 1.4632525 8.6459948 0.7243101 0.50233566 0.5 -25.330449 -87.067025 -17.47575 1.7020477 0.86961764 0.48208654 1 10 1 0.0001304364 0.00012247223 9.8659482e-05 83 -1 2999.9301 
4.381177 3.2170826 4.0147251 8.9566535 0.68196876 0.11110381 0.5 56.061326 159.70603 3.1968184 0.60955872 0.45130546 0.83922319 1 10 1 -8.1339174e-05 -0.0001018456 2.3740289e-05 10 -1 2999.0587 
11.845704 3.9040456 1.4774371 8.7573832 0.76402766 0.049971933 0.5 -20.432096 -159.01008 -6.8223962 1.6062693 -2.127731 -0.91867651 1 10 1 -4.4610517e-06 -5.8870128e-05 2.4338081e-05 68 -1 2995.4652 
10.435369 2.7916981 1.4408738 9.5696708 0.01022418 0.64585927 0.5 -11.213334 -166.65364 -11.071892 -0.030010554 -2.8735145 -1.4449096 1 10 1 -4.3048752e-05 7.083115e-06 -9.4883978e-05 82 -1 2999.7171 
4.7056883 8.1440576 4.8876412 9.0490917 0.69015357 -0.17886875 0.5 25.780312 -4.1630467 12.822229 0.15844045 -0.28309677 -0.10377717 1 10 1 4.9699917e-05 3.8481678e-05 5.5740046e-05 27 -1 2998.3457 
12.755101 1.8797977 3.1029606 9.006156 1.0452036 -0.033757479 0.5 25.557168 196.24545 -13.29076 0.79715941 0.85501334 -0.69674009 1 10 1 -5.3646898e-05 -3.167255e-05 2.6901208e-05 71 -1 2924.0626 
12.720056 5.2252776 2.2675812 8.5628009 0.97689634 0.61766039 0.5 56.62223 388.4808 -34.802578 -0.96379464 -0.35866529 -0.062376562 1 10 1 -4.1789013e-05 -9.3191374e-06 2.0773576e-05 16 -1 2981.3847 
1.6120784 0.7113232 3.2108362 8.6053145 0.51250487 0.14198031 0.5 -13.143415 228.41511 -17.877329 -0.49620542 0.42583388 -0.94619869 1 10 1 3.7387619e-05 5.0122358e-06 -7.3246586e-06 40 -1 2979.7645 
19.173956 9.3544752 0.5518689 5.1531098 0.82798746 -1.6922161 0.5 -2030.9542 19916.71 -10.734698 0.87515287 9.7242743 -1.5657613 1 10 1 -3.4147206e-05 8.9806879e-05 0 -1 0 2999.7988 
19.358687 6.59954 2.2586989 8.808493 0.56418517 0.084624189 0.5 31.713606 379.80058 -44.004674 -0.24600603 -0.67402136 0.88059461 1 10 1 3.9159594e-05 -3.5523065e-05 -6.5750458e-06 64 -1 2964.1402 
2.7946476 4.1265425 0.50418129 4.8481342 0.21103802 0.5223318 0.5 -2279.8513 20459.925 56.010748 -0.39719808 5.2262687 1.872001 1 10 1 6.6406095e-05 3.7023316e-07 0 -1 0 2999.992 
3.0863922 4.4473425 3.1485562 8.8453592 0.53737828 0.15253439 0.5 -4.9240722 220.90166 -10.70947 0.58380989 -0.092562735 -0.00068846516 1 10 1 7.1666025e-07 -1.1691262e-05 2.0011074e-05 90 -1 2998.172 
17.531045 4.7370473 3.927966 8.8626212 0.76814645 0.013040137 0.5 29.65898 177.11553 -1.6604003 0.019527722 1.1175993 0.35148059 1 10 1 1.4493125e-05 -5.2280519e-06 -1.1591067e-05 55 -1 2971.6026 
3.3084868 0.39834629 4.0778014 8.8967715 0.65869175 0.087827298 0.5 46.024633 163.09268 -11.517853 -0.40241299 0.17416814 -1.4890803 1 10 1 -1.4918098e-05 2.0404941e-06 1.0797585e-05 100 -1 2984.857 
8.3553406 0.39343516 3.1887864 9.104701 0.77678136 0.36096564 0.5 -11.491214 207.81068 -55.731715 -0.43751851 0.27351805 -1.0580667 1 10 1 9.0332317e-06 3.9911894e-06 -7.1319485e-06 72 -1 2996.6589 
6.4780103 1.6570793 2.2977201 9.0252759 0.51736893 -0.066482975 0.5 24.298715 404.58519 -8.5381396 -0.99500361 0.13000513 0.44016898 1 10 1 -1.3305986e-05 -8.0468335e-06 3.5252179e-06 98 -1 2960.3399 
13.243289 4.9616065 1.4161967 8.4361456 1.0484355 0.32999658 0.5 -388.14156 4600.9678 -21.051806 1.0369236 1.9052229 -0.43037872 1 10 1 -6.9234361e-06 -5.4489801e-06 -6.8836832e-05 28 -1 2999.7472 
1.2452755 0.33510989 4.063777 8.9764581 0.49911229 -0.045002387 0.5 28.415508 171.19293 -26.29589 0.25760709 1.1327808 -0.67855844 1 10 1 -1.8740964e-05 -9.6113809e-07 -9.8846822e-06 100 -1 2999.7931 
2.3725987 3.1806879 0.52718927 3.9399367 0.26015682 0.063801822 0.5 -2202.1065 20317.576 -21.933382 -4.0937229 3.3819831 0.42781191 1 10 1 6.5832877e-05 5.0206046e-05 0 -1 0 2999.5535 
0.50823343 9.6332932 4.0025555 9.1261347 0.69784669 0.1372591 0.5 39.88471 178.17147 -12.022835 0.29740179 -1.243332 0.90742598 1 10 1 -2.9601645e-05 3.0215904e-05 -1.9733744e-05 110 -1 2999.786 
13.611019 6.5124688 3.1119276 9.1375689 0.9477741 -0.16080417 0.5 1.10173 214.25562 5.6082019 -0.14182692 1.4340375 -0.80557732 1 10 1 3.9338958e-05 -6.1566582e-06 -7.9898552e-06 77 -1 2999.9609 
14.150079 8.117442 0.51146109 4.2680515 0.7767437 -0.16596439 0.5 -2289.2875 20075.097 -14.549551 0.47680968 9.4180119 0.10478075 1 10 1 -8.1424401e-05 -4.3966072e-05 0 -1 0 2999.9401 
0.7606037 6.701986 4.0424061 8.8399416 0.66093585 -0.058654897 0.5 58.20027 154.25717 0.61769201 -0.044994731 -0.54035809 -0.31285628 1 10 1 -2.2699586e-06 5.0215249e-06 5.9572835e-07 48 -1 2996.2017 
2.064364 7.1360868 3.1489793 8.846357 0.79378493 0.04937182 0.5 4.9896132 215.47003 -27.309334 0.016975328 -0.28030743 -0.093899717 1 10 1 -5.3074343e-05 2.4021472e-05 2.3000783e-05 67 -1 2994.2862 
4.0083147 1.7363082 3.1769889 8.7241475 0.72720057 0.21982652 0.5 28.644233 204.70489 -23.147472 -0.49183039 1.3614039 -0.5625275 1 10 1 -4.1232942e-07 -3.2201059e-07 6.2966648e-06 3 -1 2996.7666 
16.051456 1.5954419 5.5616705 8.7765679 0.61268761 0.11085002 0.5 10.034088 34.773483 11.618079 0.21600929 0.24503531 -0.61100868 1 10 1 2.1842443e-05 -5.6415111e-05 -3.0203586e-05 63 -1 2976.2718 
1.3225547 2.5281143 3.1721995 9.1171143 0.56742431 -0.077557659 0.5 34.154218 198.99852 -21.469281 0.13820321 0.16359393 -0.3673471 1 10 1 1.6043929e-05 -7.2968465e-06 -1.2250059e-05 56 -1 2999.9496 
16.026844 7.6377891 3.0825701 8.8508523 0.67437588 -0.34748736 0.5 2.5762591 205.42625 -31.244069 0.28805866 -0.48453722 -0.59822662 1 10 1 -3.4182967e-05 -1.0737724e-05 1.4226791e-05 77 -1 2974.096 
3.7705082 2.2720188 2.280188 8.5220279 0.19990879 -0.18798101 0.5 41.503601 400.13764 0.90567695 -0.32576476 1.9010459 -0.51926063 1 10 1 -8.0220422e-06 -3.2068774e-05 -1.7887916e-05 117 -1 2999.7039 
16.493849 1.2921769 3.0955085 8.9709589 1.0254049 -0.24764159 0.5 19.041079 207.23608 -16.518006 -0.29526373 0.067890029 0.55965612 1 10 1 0.00010469925 -6.5108626e-05 1.5889953e-05 71 -1 2966.3221 
11.961026 3.3103459 2.3046907 9.7049483 1.0874451 0.40279362 0.5 70.390044 431.36851 -13.025 0.76117012 -2.8631378 -1.3706222 1 10 1 -9.2627234e-05 -5.2095556e-05 -1.9928517e-05 95 -1 2999.8938 
6.7209189 6.0046666 1.3935277 8.7128975 0.8947012 -0.20075846 0.5 7.2880632 -149.00424 -23.663902 0.17848508 0.1579228 -0.90478201 1 10 1 3.8892825e-06 -1.2568481e-05 2.4196108e-05 6 -1 2999.9659 
9.1786412 1.0934322 2.3472686 8.3421049 1.3766931 0.44844431 0.5 57.357086 370.63625 -21.193178 0.27423397 0.024991605 -0.057965468 1 10 1 2.2438801e-05 5.6745451e-05 1.3375088e-05 30 -1 2981.1249 
19.941751 1.9736792 4.0338922 8.6183296 0.74636635 0.039357352 0.5 51.456569 171.11578 -7.591565 0.44078182 -0.23674659 -0.70907851 1 10 1 4.5568841e-06 -4.4533987e-05 -1.5991802e-06 71 -1 2999.9079 
15.118817 0.28204972 3.1154907 9.0429483 0.59802966 -0.0576918 0.5 20.823215 217.02962 -40.335496 0.50596781 -0.0288452 -0.31122826 1 10 1 5.9557995e-06 -2.1973307e-06 6.6606315e-05 29 -1 2999.6161 
11.428025 6.8708727 2.2913353 8.9141709 0.94233274 -0.040823493 0.5 17.031912 395.86594 -45.654427 -0.13603576 0.64152786 -0.3483329 1 10 1 3.5261807e-06 -1.8246511e-05 6.2027446e-06 45 -1 2999.9329 
15.301107 5.7572399 3.1204994 8.8997091 0.78481276 0.06723142 0.5 11.004583 185.11394 -15.558894 -0.6277142 -0.11964416 0.0026160299 1 10 1 -1.9528465e-05 3.7340592e-05 2.9444836e-05 35 -1 2999.9261 
18.222422 0.54831166 3.0867011 8.7222027 0.35020761 -0.055652994 0.5 -7.8059214 204.77697 -25.797287 -0.028818989 0.63732986 0.25965899 1 10 1 -3.577537e-06 1.0978229e-06 1.0425517e-05 11 -1 2999.914 
3.6220968 8.8961607 0.51538604 4.8350948 -0.066022393 0.24704339 0.5 -2402.4737 20223.74 66.02924 -0.85145178 9.7313305 1.7077173 1 10 1 -6.0333812e-05 2.7907416e-05 0 -1 0 2999.9481 
18.12582 1.1550183 3.9138383 8.8400776 0.82861593 -0.27504675 0.5 39.238681 162.87771 4.5314337 -0.48327428 -0.23912337 0.15228712 1 10 1 2.1217621e-05 6.6277923e-05 4.2942476e-05 11 -1 2999.9167 
14.321443 1.72616 2.2801092 8.4808004 1.0949614 -0.14135371 0.5 30.673864 388.83697 -27.114081 -0.040636165 0.29694409 -0.62944778 1 10 1 -3.8260385e-05 -9.9823149e-06 6.6833285e-06 122 -1 2976.2238 
4.8338576 6.9527755 4.0494383 9.0468942 0.60192902 0.090432539 0.5 48.930202 151.11892 -11.94357 0.083028107 -0.28246948 -0.65013309 1 10 1 -0.0001143981 -6.3906736e-05 6.5637467e-05 116 -1 2977.408 
15.071909 9.655308 1.4170595 8.211335 -0.23196043 1.3104135 0.5 22.507518 -145.15127 -14.196223 -1.1622273 1.6860269 0.83103796 1 10 1 -2.9462344e-05 -2.5357132e-05 -1.0157333e-05 53 -1 2999.6606 
0.9400218 4.8557041 3.9720154 8.8521713 0.6885399 0.22606749 0.5 45.756432 158.23317 -21.882993 0.76693075 -0.30145732 0.013970529 1 10 1 7.5326681e-05 0.00010495084 -2.0446139e-05 16 -1 2940.1988 
10.173474 2.4394834 4.8230221 8.7365067 0.80113354 -0.11702224 0.5 -4.2151305 -14.750569 -0.51543053 -0.16774332 0.15227777 -0.45289318 1 10 1 -1.6794036e-05 7.4903425e-06 -2.2800441e-05 36 -1 2999.4334 
10.5359 5.4906215 1.472858 8.9199384 0.57426308 -0.26475936 0.5 2.5942841 -36.015803 9.8084538 -0.13858549 -0.33001818 -0.35302034 1 10 1 6.0369827e-05 3.6219772e-05 5.734175e-06 83 -1 2999.3249 
11.000922 9.8689904 3.1293733 8.776298 0.83736259 0.35667292 0.5 -20.501241 218.54205 -15.91818 -1.0903373 -1.1574848 -0.3718734 1 10 1 8.3514628e-05 -5.7167748e-05 7.3129265e-05 43 -1 2999.9901 
10.146288 5.7695554 3.9927371 8.7369603 1.0434803 -0.2075418 0.5 33.120265 171.14705 -23.101139 -0.025712427 -0.22653104 -0.067060646 1 10 1 1.8617519e-05 4.6160468e-05 7.9332698e-07 79 -1 2961.4867 
10.051687 9.7160612 4.8257743 9.0026074 0.82362562 -0.2173912 0.5 24.445182 0.55713425 13.524696 -0.17805262 0.3540852 -0.27790427 1 10 1 -7.5444611e-06 8.2922454e-06 9.2276594e-06 52 -1 2977.8551 
12.316693 1.5041311 3.9458201 8.7935602 1.0818666 -0.0075133207 0.5 53.894935 175.16955 -5.7295219 -0.11634833 0.12847712 0.13240091 1 10 1 2.8257558e-05 -8.6114953e-07 1.4214728e-05 98 -1 2999.8587 
3.7410454 4.1137414 3.9939792 8.7945375 0.7574977 0.67593028 0.5 66.324322 162.25177 -29.820856 -0.19620324 0.85576567 0.80115941 1 10 1 -5.2405793e-06 -1.9284677e-06 1.247843e-06 10 -1 2999.9777 
16.202161 9.7172081 1.4720974 8.8489454 0.47766375 0.14298133 0.5 -6.2644867 -199.07309 -1.3683508 -0.46892155 -0.74378714 1.0680144 1 10 1 3.7429837e-06 -4.7520637e-05 2.9585294e-05 135 -1 2999.8482 
7.4585908 5.640255 0.55369885 4.904385 0.12859303 0.42545904 0.5 -2366.7189 19930.958 -34.448792 -1.0600512 8.5443729 -0.58553007 1 10 1 4.1703184e-05 -2.7645755e-05 0 -1 0 2999.888 
6.4502226 6.2131609 3.9908342 9.0225633 0.54550694 -0.078298882 0.5 27.911786 157.57 -9.7065658 0.1261471 -0.60290731 0.35080661 1 10 1 3.3162525e-05 -9.4607948e-05 2.1000504e-05 79 -1 2994.2811 
7.3902428 3.6083933 3.9943042 8.6862975 0.7357333 -0.09618246 0.5 28.915247 165.2912 -27.95813 0.034842779 0.35718941 0.46964676 1 10 1 -2.4507168e-06 1.7840867e-05 1.866815e-06 42 -1 2999.8883 
3.0882228 7.2155266 3.1602709 8.9856321 0.96445434 -0.25164504 0.5 4.0776973 212.69181 -3.9698274 -0.051296641 0.39511196 0.18977855 1 10 1 -4.0352095e-06 4.3070881e-05 4.9198461e-05 116 -1 2999.8114 
2.9049473 9.4695739 4.0728341 9.0473566 0.47667918 -0.12308767 0.5 53.341857 160.59368 -8.0315326 -0.31579342 0.45426594 -0.19370804 1 10 1 -1.9559612e-05 9.2412675e-06 -2.084851e-05 106 -1 2999.8583 
11.570239 5.6298562 1.4391338 8.9850712 1.2888366 -0.66705699 0.5 -8.3547164 -48.033423 26.596626 -0.33120023 -1.2462784 -1.9471309 1 10 1 1.5014348e-05 -6.6488483e-05 0.00013995295 138 -1 2999.7188 
0.14362572 4.451776 1.5155492 8.3067541 0.99459421 -0.013809673 0.5 -18.334462 -148.54926 -3.9225119 -0.1590953 1.3895457 0.3530518 1 10 1 -0.00014680078 -2.7941455e-06 1.8598416e-05 44 -1 2999.8907 