restart_version 2
name H10A20L2M0.5B0.5
xmin 0 xmax 20 ymin 0 ymax 10 zmin 0 zmax 12
dt 0.0001 t 2000.0001 tmax 2000 save_count 500000
dim 3 gravity 0.34202014 0 -0.93969262
options_fstat 0 options_data 0 options_ene 1 options_restart 2
Species 1
k 200000 disp 25 kt 57142.857 dispt 25 mu 0.5 rho 1.9098593 dim_particle 3
Walls 1
numFiniteWalls 0 normal 0 0 -1 position 1.7
WallsPeriodic 2
normal 1 0 0 pos_left 0 pos_right 20 shift 20 0 0
normal 0 1 0 pos_left 0 pos_right 10 shift 0 10 0
Particles 2067
19.330017 1.0144385 -1.4931023 0 0 0 1 0 0 0 0 0 0 0 0 0 
19.998067 4.801808 -1.6774446 0 0 0 1 0 0 0 0 0 0 0 0 0 
9.0009585 2.2610568 -0.7392901 0 0 0 1 0 0 0 0 0 0 0 0 0 
11.319671 5.3727791 -2.0989941 0 0 0 1 0 0 0 0 0 0 0 0 0 
5.4432148 0.69356462 -2.3006582 0 0 0 1 0 0 0 0 0 0 0 0 0 
2.4775488 2.183002 -0.97341932 0 0 0 1 0 0 0 0 0 0 0 0 0 
10.381533 3.856421 -0.96416921 0 0 0 1 0 0 0 0 0 0 0 0 0 
11.232541 0.3387141 -2.1629756 0 0 0 1 0 0 0 0 0 0 0 0 0 
10.273786 0.7403499 -0.46097249 0 0 0 1 0 0 0 0 0 0 0 0 0 
12.119962 9.1507635 -0.7747042 0 0 0 1 0 0 0 0 0 0 0 0 0 
17.507186 1.8130578 -1.1150478 0 0 0 1 0 0 0 0 0 0 0 0 0 
0.10339191 6.7847973 -1.8655902 0 0 0 1 0 0 0 0 0 0 0 0 0 
4.6265159 2.1817674 -1.1848395 0 0 0 1 0 0 0 0 0 0 0 0 0 
2.3793022 7.152178 -0.54923244 0 0 0 1 0 0 0 0 0 0 0 0 0 
9.618117 6.9437624 -0.24860092 0 0 0 1 0 0 0 0 0 0 0 0 0 
8.2963885 8.5273967 -1.9377969 0 0 0 1 0 0 0 0 0 0 0 0 0 
17.996162 9.5389345 -1.478369 0 0 0 1 0 0 0 0 0 0 0 0 0 
3.8480144 3.7084524 -2.2709868 0 0 0 1 0 0 0 0 0 0 0 0 0 
14.569038 4.5746731 -2.1100379 0 0 0 1 0 0 0 0 0 0 0 0 0 
11.60796 2.1562788 -1.2803502 0 0 0 1 0 0 0 0 0 0 0 0 0 
1.9033776 4.2527062 -1.9295815 0 0 0 1 0 0 0 0 0 0 0 0 0 
9.6787983 6.494031 -2.1903785 0 0 0 1 0 0 0 0 0 0 0 0 0 
5.3729973 8.2317838 -0.24498363 0 0 0 1 0 0 0 0 0 0 0 0 0 
7.1046979 4.352739 -1.8206174 0 0 0 1 0 0 0 0 0 0 0 0 0 
4.7818852 0.33002225 -0.44813685 0 0 0 1 0 0 0 0 0 0 0 0 0 
19.413485 8.3252937 -0.80739518 0 0 0 1 0 0 0 0 0 0 0 0 0 
16.273632 0.41309669 -1.9180405 0 0 0 1 0 0 0 0 0 0 0 0 0 
10.267362 8.575693 -2.1607585 0 0 0 1 0 0 0 0 0 0 0 0 0 
16.210608 7.4546657 -0.77787905 0 0 0 1 0 0 0 0 0 0 0 0 0 
1.4017444 3.9329842 -0.024649341 0 0 0 1 0 0 0 0 0 0 0 0 0 
14.559586 9.4823649 -1.5499246 0 0 0 1 0 0 0 0 0 0 0 0 0 
0.89243535 5.855513 -0.24304626 0 0 0 1 0 0 0 0 0 0 0 0 0 
6.5814665 9.3658123 -1.367215 0 0 0 1 0 0 0 0 0 0 0 0 0 
12.371518 4.0054793 -1.0762213 0 0 0 1 0 0 0 0 0 0 0 0 0 
5.3888749 3.9629039 -0.65259336 0 0 0 1 0 0 0 0 0 0 0 0 0 
11.885399 5.7239607 -0.17468586 0 0 0 1 0 0 0 0 0 0 0 0 0 
1.9694367 6.2128737 -2.2654843 0 0 0 1 0 0 0 0 0 0 0 0 0 
1.3240057 8.7162954 -1.2277861 0 0 0 1 0 0 0 0 0 0 0 0 0 
6.7173069 0.83747111 -0.046913899 0 0 0 1 0 0 0 0 0 0 0 0 0 
6.8644238 5.3678862 -0.068038272 0 0 0 1 0 0 0 0 0 0 0 0 0 
8.8201676 5.1330734 -1.0194902 0 0 0 1 0 0 0 0 0 0 0 0 0 
14.711867 4.213571 -0.15227394 0 0 0 1 0 0 0 0 0 0 0 0 0 
4.0050126 7.6781626 -1.5827513 0 0 0 1 0 0 0 0 0 0 0 0 0 
14.791158 1.0164942 -0.252422 0 0 0 1 0 0 0 0 0 0 0 0 0 
6.038574 7.6240352 -2.1355829 0 0 0 1 0 0 0 0 0 0 0 0 0 
3.4881521 1.0646865 -2.397689 0 0 0 1 0 0 0 0 0 0 0 0 0 
13.737693 5.9178694 -0.89791124 0 0 0 1 0 0 0 0 0 0 0 0 0 
13.374957 2.6600646 -2.1306228 0 0 0 1 0 0 0 0 0 0 0 0 0 
0.33497185 2.7112414 -1.1908701 0 0 0 1 0 0 0 0 0 0 0 0 0 
13.405396 2.5260049 -0.13938516 0 0 0 1 0 0 0 0 0 0 0 0 0 
7.0155577 2.7023384 -0.700436 0 0 0 1 0 0 0 0 0 0 0 0 0 
13.511428 7.7913334 -1.5279549 0 0 0 1 0 0 0 0 0 0 0 0 0 
11.586472 7.2319552 -1.4531329 0 0 0 1 0 0 0 0 0 0 0 0 0 
8.5291123 0.42952152 -1.3801095 0 0 0 1 0 0 0 0 0 0 0 0 0 
3.1602621 9.4798821 -1.2510768 0 0 0 1 0 0 0 0 0 0 0 0 0 
5.579762 5.770911 -1.5589688 0 0 0 1 0 0 0 0 0 0 0 0 0 
3.4988758 5.0669081 -0.7550967 0 0 0 1 0 0 0 0 0 0 0 0 0 
15.260754 2.8080827 -1.4761412 0 0 0 1 0 0 0 0 0 0 0 0 0 
8.8913668 3.5695487 -2.2570855 0 0 0 1 0 0 0 0 0 0 0 0 0 
7.6871037 6.7628575 -1.2367601 0 0 0 1 0 0 0 0 0 0 0 0 0 
16.633641 6.0268704 -2.1026496 0 0 0 1 0 0 0 0 0 0 0 0 0 
9.4548971 8.9255459 -0.35693579 0 0 0 1 0 0 0 0 0 0 0 0 0 
17.026194 4.6232216 -0.74438735 0 0 0 1 0 0 0 0 0 0 0 0 0 
18.138275 6.7163885 -0.89904905 0 0 0 1 0 0 0 0 0 0 0 0 0 
18.508556 3.495914 -1.478946 0 0 0 1 0 0 0 0 0 0 0 0 0 
1.0529106 0.8638742 -0.49695421 0 0 0 1 0 0 0 0 0 0 0 0 0 
13.108013 0.83602468 -1.3585504 0 0 0 1 0 0 0 0 0 0 0 0 0 
19.584294 1.3939909 1.9407659 -1.5493431e-09 -5.9355476e-10 -3.4489369e-10 0.5 0.16809755 0.73870264 -0.12114923 3.3750837e-10 -2.6745575e-10 5.7687317e-10 1 10 0 
19.194216 1.4518825 0.67895301 -3.7209248e-10 -4.2972742e-10 -1.415233e-10 0.5 -0.24421608 0.4038608 -1.7432293 3.8325015e-10 -1.6920837e-10 -8.7660327e-10 1 10 1 -1.3488554e-06 -7.9411921e-07 2.5136693e-07 67 -1 4.7892 
11.240565 2.2813688 1.9090677 6.8574681e-10 -9.9476613e-10 -1.0225786e-10 0.5 -0.69222211 1.7047091 -1.1510942 5.6682016e-09 -2.5159371e-09 6.2116113e-09 1 10 0 
10.204328 5.4720586 4.2970542 -1.2012219e-09 -8.3682506e-10 5.9692065e-10 0.5 1.0091845 -0.25346165 0.1052428 7.9048537e-10 9.2578577e-10 9.6621674e-10 1 10 0 
7.3386766 4.1641894 0.80298293 -1.2928095e-10 1.3483759e-11 6.8316598e-11 0.5 1.9362817 1.9796488 0.92106261 -1.3283469e-10 -9.4084225e-10 -7.4295393e-10 1 10 1 4.9158708e-07 1.6131259e-07 -2.0114319e-08 39 -1 15.8605 
8.4598011 3.3311681 3.2942594 -1.6728061e-10 -7.2455886e-10 -1.682463e-10 0.5 -0.6964004 1.271684 -1.1259777 -3.7325231e-10 -2.6386036e-10 1.6318123e-09 1 10 0 
13.645465 8.9020171 -0.51193198 -0.00086123435 0.00080170848 -0.0003102315 0.5 -1.2687645 1.4033462 -0.10886619 0.0037330284 0.0013520314 -0.0068696489 1 10 1 -1.9866492e-05 -3.5906964e-05 -3.7571471e-05 30 -1 2000.0001 
12.754069 6.0675832 3.0551426 -2.4442958e-09 9.4573741e-10 3.1106437e-09 0.5 1.791245 1.6856075 0.41816261 -4.7898237e-09 5.4966014e-09 5.7157963e-09 1 10 0 
10.90649 0.50677627 4.3227405 -7.8592534e-10 -4.144472e-10 2.0199977e-09 0.5 -0.16531214 2.3759337 0.40243672 -1.2736447e-09 -1.8459581e-09 -1.3873573e-09 1 10 0 
6.3767557 3.4733927 3.6538507 -3.6119481e-10 -4.5864996e-10 -2.3929451e-12 0.5 0.52631727 0.50137737 0.28449727 -1.3976998e-10 -1.1513504e-10 -4.0382005e-10 1 10 0 
14.549993 1.695533 3.7753055 -1.982633e-09 -2.0297091e-09 -1.3740129e-09 0.5 0.44705584 3.2951826 0.21939705 3.891323e-09 -3.9520411e-09 8.5560802e-10 1 10 0 
15.238541 6.3498237 -0.27410904 7.1894712e-10 5.9023218e-09 -6.5695433e-10 0.5 0.045846889 0.96819415 0.50124513 -3.4783361e-09 -6.4209523e-09 -1.2680933e-08 1 10 1 9.6846814e-08 -8.0297555e-07 -1.5135089e-06 28 -1 10.2383 
2.9008305 9.2698733 2.0777192 -3.9160568e-10 -1.8642193e-10 -1.79068e-10 0.5 0.78271664 2.6740925 -0.046470845 -3.555563e-10 -4.2123215e-10 -6.8066807e-11 1 10 0 
3.33433 1.3221004 4.0411886 -5.9859797e-10 -5.0117415e-10 -2.320175e-10 0.5 -0.33394219 -0.10065852 -0.7265409 2.0544106e-10 -9.7058467e-11 -1.3785367e-10 1 10 0 
3.9027051 3.9569391 0.16948959 -1.0467357e-10 -8.275984e-11 -3.5940247e-11 0.5 -0.56397573 0.70228283 -3.82011 2.3040423e-10 -2.6174381e-10 1.410615e-11 1 10 1 -2.1826274e-06 -5.4858498e-06 -5.6324807e-06 56 -1 2000.0001 
15.770814 8.8836649 -0.89846005 -9.6769034e-11 -4.4605833e-11 -1.7935488e-10 0.5 -1.536045 1.5088573 0.097313476 -8.3243313e-10 1.2010349e-09 -3.788356e-10 1 10 2 -1.7911244e-05 -9.0726722e-06 2.4963439e-05 30 -1 2000.0001 3.8692052e-07 1.5173361e-08 -1.2313923e-06 28 -1 2000.0001 
19.265576 3.2961398 2.6628366 -9.633529e-10 -8.5461744e-10 -4.847781e-10 0.5 -1.5523703 -0.24684344 -0.74330938 4.651545e-10 8.7085002e-10 -9.8347977e-11 1 10 0 
8.9059456 6.7725959 2.9331746 1.019165e-09 2.2610799e-11 3.3378845e-10 0.5 0.64780315 1.2389637 -0.58011995 9.7126404e-11 -4.5590389e-10 -1.3206288e-09 1 10 0 
3.9085908 8.5366453 -0.35650712 -2.072377e-11 8.5451775e-12 -8.201868e-12 0.5 -2.5724907 -3.5755031 0.77213482 -7.5907471e-11 -5.8695345e-11 9.5700804e-12 1 10 3 1.2275422e-05 4.1945104e-05 -4.6526173e-05 22 -1 2000.0001 1.156373e-05 1.4235233e-05 5.3363373e-06 54 -1 2000.0001 -3.0028487e-06 3.8415769e-07 -5.0506485e-07 42 -1 2000.0001 
1.8496328 9.5605558 1.1431948 -6.9092421e-10 4.005163e-11 -2.0879673e-10 0.5 1.7824311 0.31567012 -1.0989585 5.1976865e-10 4.2772418e-10 -1.5777311e-09 1 10 1 1.5954684e-06 -1.2310768e-06 -1.3559662e-06 79 -1 9.3143 
19.927252 3.9826337 1.8554381 -5.8073803e-10 -6.2224775e-10 -3.6665092e-10 0.5 0.58766672 1.3636858 -1.6183007 -1.6314589e-10 -4.1621132e-10 -1.996799e-10 1 10 0 
16.231363 1.1879001 -0.63443077 -2.0455398e-17 -8.5570005e-18 8.6221123e-18 0.5 1.5551015 0.8902365 -0.70967616 -6.2186411e-18 -4.2582844e-17 -8.6139748e-18 1 10 3 3.7639568e-05 5.0586021e-06 0.0001064961 10 -1 2000.0001 3.2130293e-05 6.3984978e-06 0.0001240049 43 -1 2000.0001 2.821392e-05 -2.5459943e-05 1.6297023e-05 26 -1 2000.0001 
3.48198 0.33306557 4.0393035 -4.6365905e-10 -4.9220974e-10 -2.719873e-10 0.5 -0.083077922 4.2611725 0.39250103 -3.1012574e-11 -1.1710056e-11 5.260869e-10 1 10 1 2.2858335e-06 3.4117799e-07 3.5226268e-08 80 -1 2000.0001 
13.227758 8.5883934 4.0619017 -2.1200645e-09 -9.5349808e-12 2.4600763e-09 0.5 0.81345272 0.98804654 -2.7911678 -1.3751258e-09 -4.6165104e-10 2.1025032e-08 1 10 0 
7.5834749 0.69967078 1.1697446 -3.1374244e-10 -2.0386898e-10 -1.7400997e-10 0.5 -0.79636407 2.7049705 -0.95250709 8.9561105e-10 5.261726e-10 1.0670042e-09 1 10 1 0.00011908303 0.00012054031 -7.1125484e-05 38 -1 2000.0001 
11.892311 7.6164576 0.36261543 4.7991869e-09 7.7446264e-09 3.2292925e-09 0.5 0.89071781 1.0294113 0.21409105 6.9035593e-09 1.8903207e-09 -7.5234342e-09 1 10 0 
15.504616 6.0595798 2.6210311 7.0137482e-10 3.3646445e-10 5.7153475e-10 0.5 -0.086071464 -0.76002291 -1.5374049 -1.1764548e-08 7.2847559e-10 -2.0821397e-09 1 10 0 
11.736413 9.2530135 5.1015375 -1.4621577e-09 -1.3800256e-10 2.2115357e-09 0.5 -0.85867167 2.0641861 -0.42879877 -2.3632144e-09 -3.6521008e-10 2.9103856e-10 1 10 0 
2.2658019 9.5610301 3.0115642 -4.8114695e-10 -3.6580227e-10 -3.6315821e-10 0.5 -0.52978274 1.4194825 -0.21390261 2.2584427e-11 -2.2619865e-11 2.3706525e-10 1 10 0 
1.7628761 0.25584447 2.4313731 -4.55993e-10 -3.6337795e-10 -3.7092989e-10 0.5 -1.0342302 1.2131886 -0.21913364 9.4725667e-11 -1.2197705e-10 -4.9822459e-10 1 10 1 -1.1456429e-06 -1.1064618e-06 -5.8872467e-07 95 -1 9.401 
6.4265058 7.564921 0.58889151 -2.4619213e-10 -3.2441492e-10 -9.0975673e-11 0.5 0.65733132 2.254273 -0.61729491 7.5329927e-10 -6.9228391e-10 -4.676732e-10 1 10 1 -2.2393242e-05 -7.2928781e-06 2.2459145e-05 22 -1 2000.0001 
15.374629 4.7482809 1.1123473 6.0774297e-11 -8.6567558e-10 5.7585809e-10 0.5 0.72424236 2.6481889 -3.716425 -4.813712e-09 -1.4315143e-09 -6.8219818e-10 1 10 1 3.6488159e-08 -1.8679183e-07 7.1816635e-08 41 -1 18.0792 
11.14233 8.108154 -0.31955242 1.1568015e-10 4.3181845e-11 2.0403192e-11 0.5 1.8157968 -0.97334867 0.70321028 -1.2400223e-10 2.9075654e-10 -8.8825039e-11 1 10 2 4.1937345e-06 -1.0101511e-05 -1.4131558e-05 9 -1 2000.0001 3.6063994e-07 2.1874595e-06 -1.5494924e-06 52 -1 2000.0001 
11.075204 1.9448356 0.17961455 -2.3281572e-09 2.4816325e-09 4.2180231e-09 0.5 -0.84227416 1.5362592 -1.8466208 9.9302136e-09 1.9858609e-08 -8.3945857e-09 1 10 1 -1.5099299e-06 1.2164237e-06 -4.6866601e-07 8 -1 7.9413 
19.038435 5.3751256 3.4635459 -4.4573672e-10 -1.1276289e-09 -9.2790597e-11 0.5 1.9764548 0.1715593 0.57197471 2.7468451e-10 -5.2920342e-11 -3.8093092e-10 1 10 0 
18.207241 1.2912512 0.68644912 -3.7294988e-10 -4.0722702e-10 -2.6458279e-10 0.5 0.68687209 0.32154322 0.66598527 9.4093869e-11 -6.6985638e-12 7.7719662e-10 1 10 1 4.1396186e-07 -2.3023155e-06 5.1688503e-06 68 -1 2000.0001 
12.082041 3.0611313 5.0922471 -9.1263497e-10 -1.5036462e-09 7.3644112e-10 0.5 -0.072543592 1.3110026 2.1192479 2.7369302e-10 -1.268176e-09 3.0295324e-09 1 10 0 
6.9173346 1.7579869 3.9949559 -3.9547684e-10 -4.9213055e-10 2.1930465e-10 0.5 -1.4732317 1.4660445 1.0360092 6.7005119e-10 -6.7663505e-10 2.2601431e-10 1 10 0 
18.506218 9.5649809 -0.067460255 -1.0065648e-09 -1.0639362e-09 -3.5068004e-10 0.5 0.62755376 -0.43632572 0.76648414 -4.2761196e-10 1.1857106e-09 -9.3682211e-10 1 10 1 5.2455879e-08 4.2200955e-08 -1.9725931e-08 16 -1 33.9251 
2.5869911 6.6419459 2.8384359 -4.7964451e-10 -4.8000484e-10 -1.6627537e-10 0.5 -0.088837592 3.1684321 -0.37134859 1.9870163e-11 3.0542478e-10 9.3494019e-11 1 10 0 
5.4783351 1.4805628 2.4000043 -1.9157763e-10 -3.020471e-10 -8.128059e-11 0.5 -0.083255544 -0.58388607 -0.050498355 2.8417922e-10 -2.1099169e-10 3.5068878e-10 1 10 0 
6.3767631 6.4806099 2.0855679 -5.2184459e-10 -7.9783379e-10 -3.2770739e-10 0.5 0.8381732 1.1422016 -1.8882005 -1.1103179e-09 8.2246613e-10 1.6094254e-10 1 10 0 
8.515018 2.971652 4.2257527 -9.3821379e-10 -3.5375548e-10 9.3457545e-11 0.5 0.23506137 -1.3022464 1.3643038 -3.3346475e-10 -1.7424912e-09 -5.9024703e-10 1 10 1 -2.7706668e-06 8.4446372e-06 3.4235037e-06 72 -1 2000.0001 
19.517476 1.8565057 -0.26611772 -2.9872521e-11 -2.1679849e-10 8.7561255e-11 0.5 -0.042357584 0.66370145 -0.28899402 2.4361302e-10 3.2626359e-11 -2.1654629e-10 1 10 1 3.9312054e-05 3.8334675e-05 -3.23148e-05 0 -1 2000.0001 
7.3529696 4.2550117 1.8205603 3.0358666e-10 -8.5167817e-11 9.1170465e-11 0.5 -1.8709114 -0.33816449 -0.42051282 5.214416e-11 -5.6368507e-10 -2.5802607e-10 1 10 1 -2.8594253e-08 -2.3208429e-07 2.1703683e-08 71 -1 23.4836 
9.0152504 6.35012 2.0235684 2.6386904e-09 -2.4147043e-09 -1.8429e-09 0.5 -1.6421257 0.060394237 -1.6198868 1.6143234e-08 1.4039639e-08 1.0047805e-08 1 10 1 4.0734552e-08 2.0761719e-08 -5.2216592e-09 84 -1 29.7486 
9.5143981 5.2575427 3.6057319 -7.5426919e-10 -7.0033051e-10 2.4489218e-10 0.5 0.77676627 3.2478521 1.6697458 2.4057113e-09 -1.2376937e-09 2.0683301e-09 1 10 1 -3.4732685e-06 -1.056426e-05 6.7443398e-06 70 -1 2000.0001 
3.3275438 3.6683912 3.6236174 -4.9941575e-10 -5.9145949e-10 -2.4919911e-10 0.5 -0.90342692 1.8902008 -1.7815103 -1.3813697e-10 -1.7360498e-10 1.1934659e-10 1 10 0 
5.641758 3.777033 1.8254394 -1.7337897e-10 -3.4567948e-10 -6.3503716e-11 0.5 1.0218497 1.1810659 -0.60416354 1.8557672e-10 -6.4203971e-11 -8.440992e-11 1 10 0 
17.243946 4.4491332 1.7290175 -1.2924566e-10 2.1880178e-10 -1.0176565e-09 0.5 -0.60496425 1.4723971 -0.41003095 3.5451621e-09 -2.8782212e-09 -3.6400194e-09 1 10 0 
4.3146039 5.8207607 0.34821051 -3.9515408e-10 -8.4352617e-11 -1.9424437e-10 0.5 0.55894461 1.8850095 -0.27111124 2.5059232e-10 6.853099e-10 -4.8116037e-10 1 10 1 -3.8657713e-06 1.157142e-05 -4.4921334e-06 56 -1 4.0534 
13.102188 6.7698285 1.4749097 -2.3607524e-09 -1.360012e-08 -3.0367526e-09 0.5 -0.33276365 2.182061 0.88165224 3.4252052e-08 -1.7239978e-08 5.6431457e-09 1 10 0 
15.550573 9.3750723 3.2799647 -4.2072256e-09 -1.3977164e-09 -3.3068553e-09 0.5 -0.40010366 0.1291353 1.5072988 -7.0077433e-09 2.4430359e-09 -5.312011e-09 1 10 0 
18.56854 7.6253192 0.82122697 -7.9574784e-10 -4.58555e-10 -2.1594603e-10 0.5 0.56710535 0.71713641 0.9736353 8.0165287e-10 -8.1834941e-10 2.8750234e-09 1 10 0 
16.996265 6.7352544 2.713109 1.1306481e-09 -1.5505012e-09 5.4254632e-10 0.5 -2.0156879 -1.4168996 0.039627878 1.1642303e-09 3.8595948e-09 2.6825896e-09 1 10 0 
12.997119 7.1930995 4.0387998 3.5952429e-09 -7.8696723e-10 1.0633045e-08 0.5 -1.7468846 1.9583947 0.24957133 -5.2040725e-09 -3.6873673e-09 1.5420075e-08 1 10 0 
17.077143 4.6084147 0.75463634 -3.7302709e-10 9.6779748e-11 1.3634925e-10 0.5 -1.0725944 -0.24334668 -0.57311765 1.6545818e-10 -3.5016986e-10 6.1877192e-10 1 10 1 -5.6984318e-05 -2.3551941e-05 1.7041544e-06 62 -1 2000.0001 
9.5896402 6.2442899 4.0900094 6.3058439e-10 -6.7013212e-10 4.2792742e-10 0.5 1.3842117 1.0655478 -0.86852557 9.246576e-10 -2.4124765e-09 1.2382833e-09 1 10 1 2.7507553e-07 1.519615e-06 2.1525229e-08 84 -1 9.1458 
9.0211046 1.8494679 2.1324819 8.2572955e-10 -1.5199958e-09 4.5403913e-10 0.5 -1.2575104 1.1391945 1.2662385 -3.8099649e-09 2.0001608e-10 7.4213734e-10 1 10 0 
14.451013 6.3704687 0.34153812 8.7958429e-10 -1.7113967e-09 -1.0451842e-09 0.5 -0.50268241 2.5652961 -0.85739795 1.5163163e-08 5.9681717e-09 1.9371525e-08 1 10 2 -5.7712581e-06 -5.0241617e-05 -5.6977228e-06 78 -1 2000.0001 -1.4009997e-05 4.8088149e-05 -9.4969983e-06 46 -1 2000.0001 
16.72056 8.8005689 -1.2001615 -2.9162629e-10 -2.6573497e-11 -5.6675136e-11 0.5 -0.26086058 0.1668017 0.54332735 -1.4197101e-10 -1.6375744e-09 8.1909887e-10 1 10 4 -7.5477402e-05 -5.4805595e-05 0 -1 0 2000.0001 3.9476426e-06 -2.4406312e-05 -4.6674372e-05 16 -1 2000.0001 1.8434746e-05 8.5935479e-07 2.5000927e-05 28 -1 2000.0001 -7.3133469e-06 1.6273469e-05 -2.7504291e-05 82 -1 2000.0001 
6.314725 1.8726991 2.0171717 3.8811898e-11 -3.4767143e-10 2.120178e-10 0.5 2.1094381 1.9281677 0.84528638 1.3538689e-09 2.7914885e-10 -1.5676629e-09 1 10 1 1.822866e-05 -1.692272e-05 2.2490915e-05 107 -1 2000.0001 
4.0387846 9.4650381 1.0861262 -1.5548321e-10 -1.6877485e-10 -6.5251284e-11 0.5 -0.56178436 -1.4205644 1.0369141 2.0392087e-10 5.5761004e-11 -5.8735089e-12 1 10 0 
15.258242 6.6229232 3.6160619 -1.0329227e-09 -4.0292932e-09 6.9792383e-10 0.5 0.56150489 0.76740274 -0.23268009 6.5176624e-10 3.098297e-10 1.1577971e-09 1 10 0 
7.4963447 0.027926767 1.9052063 -1.9978939e-10 -6.0366945e-10 -2.8935126e-10 0.5 0.32290672 0.72379353 0.46050597 3.8780818e-10 3.6466452e-10 -1.0460297e-09 1 10 1 -0.00011145051 3.7293523e-06 -9.797301e-06 91 -1 2000.0001 
10.872348 7.7738493 5.363366 -5.2305555e-10 -8.5772809e-10 1.037716e-09 0.5 -1.6325888 3.0665656 -0.55674342 -3.4086033e-10 -1.0304356e-10 5.8986058e-10 1 10 0 
13.140178 9.7470949 2.9029039 7.0065016e-09 -1.3946649e-09 3.0217217e-09 0.5 0.17132021 2.4098282 0.28840496 1.8841942e-08 -5.2934617e-08 8.2014228e-08 1 10 0 
8.4940393 2.5491006 2.6720103 -6.11934e-10 -5.3925878e-10 -6.3008055e-10 0.5 -1.0138889 1.7775421 1.8406299 1.0160601e-09 2.8002978e-09 -1.357387e-09 1 10 1 -8.7168943e-08 -9.7043871e-07 1.2148898e-06 72 -1 2000.0001 
15.260935 8.1717511 0.24280567 -2.0669014e-08 9.1433372e-09 9.8311774e-09 0.5 1.2041389 -1.4628616 -1.5844356 -2.0521655e-08 1.3781251e-08 -4.4340075e-08 1 10 0 
11.333648 5.1708535 2.8159757 -4.7089159e-10 -1.9838631e-09 1.3923018e-09 0.5 -0.38591829 2.466265 0.25014813 -2.5057522e-09 2.0274124e-10 1.7870612e-09 1 10 0 
7.2728629 6.6050003 3.7149941 4.4982606e-12 -3.869947e-10 -7.0320191e-11 0.5 -1.6969475 0.64604224 1.8821532 3.7662488e-10 -1.7992796e-09 9.8136827e-10 1 10 0 
13.577294 7.9891135 0.47659015 -2.7398607e-09 2.2917769e-08 -5.3776451e-08 0.5 -2.8031795 0.54994029 -0.70428615 -1.4261348e-07 -1.8690105e-07 -1.1249653e-07 1 10 0 
12.114532 2.8682529 1.1276229 -9.3352162e-10 -8.4761468e-10 -8.2141366e-10 0.5 0.30933108 -0.056503197 -0.80605812 9.0863731e-10 -1.7277898e-10 -7.257031e-10 1 10 1 -9.7932056e-07 3.7268152e-06 4.2337618e-05 69 -1 3.0131 
1.6428415 5.2050709 1.8681432 -3.9259826e-10 -4.0531229e-10 -2.5112522e-10 0.5 -2.0358331 0.14326325 0.019985213 8.4111915e-10 3.858385e-10 3.7567125e-10 1 10 0 
14.319344 8.6891349 0.49253695 2.3073198e-08 -3.6790707e-09 -5.1903101e-08 0.5 0.4562973 -2.1114347 1.2886356 -1.4678402e-07 -1.5072014e-07 -1.268865e-07 1 10 1 -2.2972419e-05 -3.5635662e-05 -6.3577813e-06 135 -1 3.3104 
1.3683481 5.2837731 4.0809828 -7.3144441e-10 -7.5883148e-10 -3.4267681e-10 0.5 -1.5956111 1.9775485 1.7729098 -2.7028698e-10 -2.242482e-10 -3.3520692e-10 1 10 0 
19.524133 1.6712853 2.8996174 -1.1816489e-09 -9.3461312e-10 -9.6858856e-11 0.5 -0.26651723 0.89182323 0.68834608 4.9346188e-10 1.2612836e-09 -3.5448389e-10 1 10 1 1.9226267e-05 7.0440316e-05 -1.916463e-05 67 -1 2000.0001 
1.5792353 3.3555334 2.712719 -6.3311441e-10 -6.1957331e-10 2.1932558e-10 0.5 -2.5258895 2.4891477 1.5205939 6.7734504e-10 5.9296211e-10 7.2142606e-10 1 10 1 3.6465912e-06 8.3787508e-06 -2.3814866e-06 114 -1 5.4043 
6.0539024 6.9575765 4.2663783 -5.6883562e-10 -6.2618277e-10 -1.0931918e-10 0.5 0.08156407 0.50166278 -0.71853718 -1.0711738e-10 2.3800728e-10 4.5593908e-11 1 10 0 
17.549894 8.2323404 2.100123 -5.2455705e-10 -1.48733e-09 5.0568132e-10 0.5 0.32465569 1.2821849 -0.55388298 -3.5927092e-09 2.2663479e-09 1.4577338e-09 1 10 0 
15.207263 8.7881063 2.1064495 -6.6295897e-09 -2.1577854e-09 -5.5546226e-09 0.5 -0.34001741 -1.1638868 -1.2441418 9.8438647e-09 1.8706233e-08 1.984028e-09 1 10 0 
18.178677 7.9463832 -0.041700433 -1.0117e-09 -1.9325625e-10 8.45704e-11 0.5 -0.41371356 -1.3030329 0.049807049 5.3553119e-10 4.5433457e-11 1.8988897e-09 1 10 2 0.0001381366 7.6796328e-05 -0.00011668545 63 -1 2000.0001 8.9381811e-05 2.0123308e-05 -3.289472e-05 120 -1 2000.0001 
9.6491832 3.8281817 0.85283003 -9.7413166e-11 -4.6693316e-10 3.6847029e-10 0.5 1.5356192 -0.019636263 0.5732354 -1.7375466e-09 -2.1642901e-09 2.379978e-10 1 10 0 
0.87685625 7.0956503 1.9056818 -5.2278749e-10 -2.9523092e-10 -2.1488454e-10 0.5 0.63488716 -1.7858585 -0.60528913 -4.8083967e-11 5.5463696e-10 -1.4767721e-10 1 10 0 
19.076402 5.0708704 2.5117224 -3.3746071e-10 -7.339967e-10 -2.1576879e-10 0.5 -0.44997727 1.75129 1.3530657 5.6526723e-10 -3.2178029e-10 4.577163e-10 1 10 1 -1.1825426e-05 8.9295855e-06 -3.3260781e-06 101 -1 2000.0001 
14.231625 4.4820449 4.7432783 -1.1533003e-09 -2.5120815e-09 1.7546629e-09 0.5 0.2078522 0.70558998 -2.1162155 1.144687e-09 -1.4463243e-09 -1.2630012e-09 1 10 0 
12.382412 3.8662526 2.2016241 -2.1110471e-09 -1.4232391e-09 -5.1999886e-10 0.5 -0.23477602 -0.017777873 0.37419367 -7.2589806e-10 3.2196142e-09 8.1245495e-09 1 10 0 
17.847982 9.3116355 0.73928087 -3.1462153e-09 -1.1284703e-09 -3.4801506e-10 0.5 -1.1601849 1.8096909 -1.9050188 9.3017907e-10 4.0593169e-09 4.7205513e-09 1 10 1 1.5488432e-06 -2.8279161e-06 6.030241e-07 105 -1 6.6159 
9.5751133 9.0795044 1.1302505 2.876561e-10 -1.3017705e-10 3.2668981e-10 0.5 0.55178972 1.8319848 -0.17507498 1.1930906e-09 -1.9521093e-10 -2.9859688e-09 1 10 1 3.5183207e-05 3.3925499e-05 -6.3561046e-06 61 -1 2000.0001 
10.418552 3.4460691 2.3270997 -7.1583852e-10 -1.2966031e-09 1.0319696e-09 0.5 1.1287842 3.900843 0.19006932 -1.1516736e-09 -4.4472033e-09 5.9822081e-09 1 10 0 
13.600832 9.1929974 2.209585 -1.1451274e-09 3.7166141e-09 -4.4421746e-09 0.5 1.6453713 0.62346082 1.8505435 -4.0766428e-08 1.0666937e-07 -5.0482966e-08 1 10 1 -1.1635206e-05 -7.0176898e-07 -7.169799e-06 133 -1 2000.0001 
17.125863 9.6645127 3.7379995 -2.6058618e-09 -2.7616508e-09 -1.0225763e-09 0.5 0.79245051 0.62141363 -0.25950087 3.5771655e-10 -7.9416156e-10 -5.6742899e-10 1 10 0 
12.241272 9.434517 2.5826028 -2.1302079e-09 4.6950902e-09 8.9301443e-09 0.5 -1.1848103 -0.33585034 0.80587918 4.4768241e-08 1.0175399e-09 7.7092406e-09 1 10 1 9.5078107e-08 -1.4330149e-07 -1.8096772e-07 133 -1 12.6853 
1.3353248 7.7418793 1.0957406 -6.2757285e-10 -2.0406513e-10 -4.2549516e-10 0.5 0.86601959 0.32768938 -1.59251 -6.5691703e-10 2.6232915e-10 -2.6234605e-10 1 10 0 
0.19989095 9.9887091 2.122828 -1.3493763e-09 -8.0873758e-10 -5.1234637e-10 0.5 0.65133203 1.5567778 2.112526 -3.9649444e-10 -3.5885772e-10 -2.1021006e-09 1 10 1 -1.3165142e-06 -3.2257406e-06 2.8699335e-06 96 -1 5.5069 
8.258658 4.0727338 1.4378712 3.4766021e-10 -4.2231913e-12 1.1486412e-10 0.5 -0.071297918 -0.72509113 1.0599506 2.5856945e-09 -1.9528649e-10 -7.3038174e-10 1 10 1 -4.3326326e-06 -3.8783886e-05 8.2192837e-06 111 -1 2000.0001 
13.696061 7.7857332 1.4610901 -2.405218e-09 -2.8216525e-08 2.1970401e-08 0.5 -1.0387235 1.3894659 -0.82778818 3.889579e-08 5.2122173e-08 7.2216337e-08 1 10 1 1.6896179e-07 -1.5567131e-06 -3.8072815e-07 138 -1 16.5995 
16.313071 7.4408857 2.9025194 -2.7400774e-09 -8.9960158e-10 2.5012127e-09 0.5 -1.2939173 0.086439244 -0.37803826 8.4309555e-10 -3.1333234e-08 1.5531203e-08 1 10 1 1.6643821e-08 5.0624966e-08 -1.2782033e-07 121 -1 36.8599 
6.9802135 4.2159304 3.9444802 -1.7114124e-10 -5.1779735e-10 -1.1613738e-10 0.5 0.84673438 -0.63889502 -0.23273546 -1.0853211e-10 6.5867494e-11 -1.6994313e-10 1 10 1 -3.9288344e-06 5.2373466e-07 6.8196556e-06 76 -1 2000.0001 
4.7226591 8.4721169 2.8054429 -3.8157747e-10 -4.5291463e-10 -2.1475195e-10 0.5 0.80091501 1.8463443 -0.15180282 -2.2099e-10 3.6264384e-10 -1.716756e-10 1 10 0 
8.8557611 8.4895757 1.4969593 -4.3385726e-11 -8.6774811e-12 -1.3619067e-10 0.5 0.24823201 -0.64215501 0.14165728 -1.4496897e-09 -1.952817e-09 2.5481601e-09 1 10 1 -4.8112418e-06 -3.597683e-06 -1.522558e-05 155 -1 2000.0001 
16.154951 1.2753873 2.7615318 -1.3951777e-09 -1.9165987e-09 -2.383084e-10 0.5 -2.199122 2.5071829 1.7117851 1.9225764e-11 -8.3662302e-10 8.4243126e-10 1 10 0 
18.604913 2.7484826 4.167532 -5.5585973e-10 -1.6086229e-09 -2.5068148e-10 0.5 -0.25329255 -1.4557088 -0.97517627 -4.719603e-10 4.2263965e-10 -1.6994014e-09 1 10 0 
1.3302077 8.5579397 2.4178677 -7.2124014e-10 -4.5264601e-10 -8.3705996e-10 0.5 -1.6172035 2.8137898 -0.74894174 -2.673361e-11 -2.3122147e-09 -1.1409104e-10 1 10 1 -5.2409592e-06 2.3773201e-05 -6.3828767e-05 150 -1 3.2178 
11.735445 8.2616711 3.7824306 1.7911081e-09 2.0684864e-09 3.033635e-09 0.5 0.64417577 -0.47189244 -0.16493084 -9.2405757e-09 -6.1551037e-09 4.0378407e-09 1 10 1 -8.5759057e-07 2.0592635e-07 8.852779e-07 90 -1 9.0796 
18.403301 3.7883454 2.89431 -6.9112165e-10 -7.3914425e-10 -1.7379934e-10 0.5 -0.31719943 1.3207927 0.43616852 5.2722775e-10 1.9843756e-10 -3.9277988e-11 1 10 1 1.5272713e-06 -1.4963634e-06 -1.6386942e-06 116 -1 5.8196 
0.17006693 9.5860806 1.2035752 -5.3271089e-10 -3.4343029e-10 2.4913514e-10 0.5 -1.6540123 -1.3909341 -0.25040968 -2.8074583e-11 1.9850465e-09 -2.8693196e-10 1 10 1 2.1682696e-08 9.7708678e-10 -1.1410609e-09 161 -1 34.6463 
18.105847 1.1707238 3.0070937 -1.2876173e-09 -1.9654553e-09 -1.4232027e-10 0.5 1.9170311 0.74523032 -0.8918304 -9.5461029e-10 -7.9853568e-10 -1.2753457e-10 1 10 1 1.9081822e-05 2.2284473e-06 -4.4201712e-05 168 -1 3.2756 
1.4673934 4.2346368 1.4432312 -2.1177557e-10 -2.2097372e-10 -3.1796705e-11 0.5 0.42427281 0.17720326 1.4717132 2.2153012e-10 -1.9615838e-10 7.8415088e-10 1 10 1 9.3379828e-06 -5.2712531e-06 6.6562533e-07 29 -1 2000.0001 
10.979498 0.42761007 1.5440482 3.1184582e-09 -2.2607557e-09 -2.3217198e-09 0.5 0.4263586 0.65387397 -0.3802737 -5.4601352e-10 -1.7520427e-08 8.5405796e-09 1 10 0 
1.8513016 2.646266 2.0624213 -4.9061284e-10 -3.2273972e-10 1.3264595e-11 0.5 -0.18751611 4.970941 1.2340273 1.5249089e-11 -3.5201139e-10 -7.0563451e-11 1 10 1 1.9036564e-06 -4.7202128e-06 5.944683e-06 144 -1 2000.0001 
7.3082653 7.7327 0.14811387 -2.0004971e-10 -1.9044296e-10 -4.5143036e-12 0.5 -1.5273953 -1.4515761 0.86185689 -4.7383516e-10 4.6292241e-10 6.4407955e-10 1 10 1 -2.3388272e-06 1.416651e-05 7.1364728e-07 97 -1 2000.0001 
4.223862 1.8594575 4.9163611 -6.3346196e-10 -5.9503235e-10 -2.7024188e-10 0.5 2.4506841 2.0874818 -0.16225551 -2.5974321e-10 -2.0745561e-10 6.1827398e-11 1 10 1 5.4919352e-07 -1.1471944e-07 -1.9713105e-07 80 -1 13.565 
16.056216 8.825887 1.1687462 -1.6816529e-08 6.7172932e-09 -6.4404463e-09 0.5 0.70385532 0.63295392 0.038343439 -1.0795956e-08 -1.4623213e-08 -2.5851591e-08 1 10 1 1.6953707e-06 -2.3339818e-05 1.0437973e-05 135 -1 3.7178 
16.06932 5.2544719 1.902614 9.0630835e-10 -7.5875637e-10 2.5887429e-10 0.5 -3.0732357 -1.8813211 1.5272927 -3.8872248e-09 -2.3856521e-09 -9.4799202e-11 1 10 1 -1.3731104e-06 8.4571651e-07 7.4311838e-07 98 -1 8.0768 
1.8289598 8.5363927 3.2843166 -1.0621172e-09 -4.1358181e-10 -6.0302e-10 0.5 1.6756664 2.0762627 1.3212536 -2.9527969e-10 1.4247308e-09 3.4903005e-10 1 10 1 -1.731396e-06 3.4466655e-05 1.8537625e-06 170 -1 2000.0001 
9.8011117 1.7823854 4.1787309 -1.0208328e-09 -1.9449451e-10 5.4567552e-10 0.5 0.63771709 0.22172225 -0.28305124 -4.7402576e-10 1.811185e-10 4.1702964e-10 1 10 0 
17.484089 0.73668473 4.1125081 -2.0421481e-09 -1.6217482e-09 -8.4524095e-10 0.5 0.83157595 0.82599674 1.4541084 -1.8727371e-09 -2.4822109e-09 3.9158211e-10 1 10 1 2.0216234e-06 -1.1847144e-07 -1.9066196e-07 158 -1 14.4699 
0.84823191 4.9163929 3.1403653 -5.069435e-10 -7.5171223e-10 -2.7346579e-10 0.5 0.28829218 1.279057 0.48973556 -2.2889762e-10 -1.8003496e-10 -4.8971154e-10 1 10 1 2.6870688e-06 -2.160751e-06 2.1596307e-06 142 -1 8.2582 
8.3138649 8.530488 2.33639 -1.0002794e-09 -5.1478285e-10 -9.4300285e-10 0.5 -0.26052036 0.090653067 -0.84478307 -2.3438528e-09 2.2962023e-10 4.2285809e-09 1 10 1 2.1485014e-05 -3.3838388e-06 1.4034616e-05 167 -1 2000.0001 
13.229467 7.2306316 3.0669284 -3.5128321e-09 -1.395016e-08 1.3083473e-08 0.5 -1.0502859 -2.0276329 1.3171739 -3.2265628e-08 2.3848421e-08 3.2878894e-08 1 10 1 -3.3311949e-06 -1.7330371e-05 -1.4656722e-06 122 -1 2000.0001 
12.025857 4.7848419 2.0315117 -1.5165922e-09 -2.3828267e-09 -8.0900215e-10 0.5 -0.11631543 0.92954839 -1.5134259 1.3413379e-09 -7.1652402e-09 -9.0731237e-09 1 10 1 7.3937145e-06 4.8476358e-06 1.0679526e-05 153 -1 2000.0001 
16.587738 7.0477767 0.69235205 -3.4403197e-09 2.0759237e-10 -3.1293888e-09 0.5 -0.26784895 0.98661358 0.65720557 -1.1388533e-08 -1.2032646e-08 9.7786909e-09 1 10 1 8.9924549e-08 -2.2248046e-06 -6.1024888e-07 28 -1 5.6261 
10.839816 5.4019006 0.85148186 -1.2833438e-09 1.9002165e-09 -4.810318e-10 0.5 0.04970837 0.80044728 1.4364412 -7.0572686e-09 -2.8538981e-09 3.9853654e-09 1 10 1 2.214633e-08 1.17251e-07 5.9364272e-08 35 -1 2000.0001 
5.4631168 7.7230378 1.1632013 -1.6303682e-10 -9.6700877e-11 1.6731663e-11 0.5 -1.5071199 -0.53376642 0.51199761 -1.5006572e-10 -5.7566322e-10 3.4718511e-10 1 10 1 8.0876867e-06 2.2283144e-05 7.5328185e-06 22 -1 2000.0001 
0.85802243 1.9541328 4.8716639 -8.2784724e-10 -8.6503997e-10 -4.9229533e-10 0.5 1.2529009 1.5799759 0.17995383 5.3907867e-14 -8.3956083e-11 2.0970964e-10 1 10 1 4.9421407e-05 -6.0910417e-06 -0.00013730958 169 -1 3.1676 
13.648981 4.6004005 3.9392261 -5.7790123e-10 -2.4649594e-09 1.229055e-09 0.5 -0.14100966 2.2940562 -1.1528913 -2.4101102e-09 2.9293734e-10 -1.0922716e-09 1 10 1 8.5267087e-06 -1.2444538e-06 -6.3619255e-06 152 -1 2000.0001 
15.271855 3.4132348 3.4242651 -5.2048499e-10 1.0227032e-10 1.2100948e-10 0.5 1.3977816 2.5491673 -0.25389812 4.4917624e-11 -3.2361748e-09 2.5234867e-09 1 10 0 
2.8014637 1.8721183 2.2316738 -4.7597866e-10 -3.8524179e-10 -1.7336113e-10 0.5 -0.034870072 1.0086673 -1.539025 3.0720967e-10 1.4464145e-11 -4.4724427e-11 1 10 0 