restart_version 2
name H20A14L0M0.5B0.5
xmin 0 xmax 20 ymin 0 ymax 10 zmin 0 zmax 24
dt 0.0001 t 2080 tmax 3000 save_count 200000
dim 3 gravity 0.2419219 0 -0.97029573
options_fstat 0 options_data 0 options_ene 1 options_restart 2
Species 1
k 200000 disp 25 kt 57142.857 dispt 25 mu 0.5 rho 1.9098593 dim_particle 3
Walls 1
numFiniteWalls 0 normal 0 0 -1 position 0
WallsPeriodic 2
normal 1 0 0 pos_left 0 pos_right 20 shift 20 0 0
normal 0 1 0 pos_left 0 pos_right 10 shift 0 10 0
Particles 4000
15.345748 1.894914 6.5525517 14.357355 0.077611707 0.033919922 0.5 -3.4317712 -15.38596 -3.4785144 0.2505947 0.06139847 -0.070928809 1 10 0 
3.4975509 6.2214936 1.4659961 12.775337 -0.38201457 -0.32083922 0.5 -67.450529 329.242 3.8951482 0.075673458 2.1103135 2.4252163 1 10 0 
18.809001 5.2526128 3.8926543 13.648633 -0.36174296 -0.13237995 0.5 -2.8008817 0.48945736 -4.7013153 0.68706158 0.07698618 -0.082144509 1 10 0 
11.131883 4.3077653 5.5515762 13.953054 0.23612882 0.12102281 0.5 -18.788261 1225.829 218.23023 0.60866291 1.5376628 -0.25079005 1 10 0 
15.870419 3.7281073 8.7336978 14.367345 0.27660921 0.11327635 0.5 17.507243 -0.2884517 3.5497167 0.070924551 -0.067481373 0.060522143 1 10 0 
17.339283 4.9208629 6.4487803 14.470435 0.12323964 -0.047039024 0.5 27.943527 19.077148 -10.776715 -0.67494393 -0.19201302 0.47986354 1 10 1 6.252189e-06 5.2676422e-06 -5.2793025e-06 3 -1 2065.8851 
11.777385 1.1984073 0.56373857 6.3781989 -0.38970023 -0.43538059 0.5 -417.80301 19162.343 6.9662636 -0.25992227 12.521051 -1.1610403 1 10 1 -0.00013134236 -7.9366628e-06 0 -1 0 2079.8922 
5.8633594 0.33366306 8.1542763 14.32949 -0.14146876 0.043554088 0.5 22.866001 1.1998762 0.59570428 0.077369475 0.052636535 -0.12236215 1 10 0 
17.800925 3.1248395 2.4216926 13.668205 0.22324358 0.22592778 0.5 -35.413451 282.84404 -9.4517867 1.5947533 -0.0047442607 0.080462716 1 10 1 -0.00030687178 4.4866328e-05 -3.5476207e-05 6 -1 1571.3921 
14.321167 7.3139854 3.1335381 13.296928 0.11119358 0.35278407 0.5 -12.303433 -41.257865 -8.3866693 0.1561324 -0.069395871 -0.41393861 1 10 0 
6.3303199 6.5698404 6.4477964 14.366965 0.034429346 0.082135471 0.5 73.7735 -12.775824 -7.2383472 0.058609285 -0.2387335 -0.021634222 1 10 0 
4.8582394 4.4624308 5.5756688 14.050283 0.28789161 0.1804701 0.5 -34.165317 1214.1757 229.70331 0.52652069 0.20820507 0.61027736 1 10 1 -2.0547899e-05 2.525389e-06 1.0603745e-05 5 -1 2051.2387 
6.8037446 7.4828143 2.3120724 13.648586 0.34269716 0.019137482 0.5 -37.543676 -1.4083158 2.5489522 -0.91136432 0.44015343 0.18131461 1 10 1 1.6769652e-05 8.9102224e-05 2.8354889e-05 9 -1 1109.3624 
15.34674 4.3103916 8.0844956 14.481941 -0.052934715 0.028661412 0.5 12.01064 21.751862 2.2811864 0.094183535 -0.022422852 -0.1578468 1 10 1 -4.0254009e-06 -1.0827398e-06 2.1901204e-06 4 -1 2078.3508 
1.8155295 6.4199908 3.1121107 13.768046 -0.060791131 -0.011529863 0.5 6.0285122 -34.099641 0.12102019 0.27176014 0.33712588 0.15852431 1 10 0 
14.87539 5.7378977 8.9056541 14.346882 0.14489242 -0.023946428 0.5 -13.346935 -2.0299039 0.71541765 0.10018514 0.071219286 -0.0059815461 1 10 0 
1.1546808 7.1346283 5.6146304 14.247799 0.083405677 -0.00061989447 0.5 -75.822744 1477.9055 36.141701 0.078658647 1.0167643 0.060509735 1 10 1 -3.6345103e-05 -5.3792e-05 -1.5484283e-06 10 -1 2068.3474 
18.843913 1.0412153 6.5159527 14.398837 0.17052814 0.11200715 0.5 27.178939 -5.1854134 -0.7614466 -0.17647567 0.15480862 -0.11175391 1 10 0 
8.3601241 5.8424705 0.50083827 7.1878395 0.025243875 0.11765735 0.5 -407.14864 18340.558 6.3973538 -1.9404613 14.341112 1.0467404 1 10 1 1.884164e-07 -1.1332038e-05 0 -1 0 2079.993 
12.29452 2.112589 0.55471271 6.9988107 -0.37875005 0.24212526 0.5 -21.085758 18190.733 -31.465008 1.7476752 9.4797428 -0.097856021 1 10 1 -4.2451858e-05 1.792654e-05 0 -1 0 2079.7811 
14.378832 8.3420904 8.9210672 14.351044 0.078582994 -0.0080378123 0.5 5.2520959 30.264022 1.9717314 0.079902918 -0.064591907 0.051388621 1 10 0 
4.8831995 0.99634995 4.857135 13.053949 -0.2810827 0.0135884 0.5 -45.389801 473.95889 12.266944 -0.3651907 -0.65589043 -0.39731197 1 10 1 -4.2608853e-06 8.1575786e-06 -1.3205669e-06 0 -1 1038.1997 
6.9430528 6.1896966 5.5860108 13.879813 0.11753185 0.21900648 0.5 -57.298048 1435.3458 119.02441 -0.16004424 1.0812251 0.15931556 1 10 1 -3.8093524e-05 5.1583424e-05 -6.1181344e-06 10 -1 2034.1582 
15.261113 1.6340308 0.50082436 6.7394419 0.21923279 0.689326 0.5 -270.65919 18484.739 -50.648067 2.6467866 15.351238 0.63055725 1 10 1 -6.9980791e-05 0.000100253 0 -1 0 2079.9989 
12.36584 7.7700469 8.0913162 14.396339 -0.014860985 0.22057711 0.5 20.282845 -4.8939682 -8.6883407 -0.018430423 -0.16102052 0.061903239 1 10 1 -3.6208409e-07 7.7602985e-07 -1.2822909e-07 20 -1 474.8662 
12.349094 1.8984941 6.5273064 14.30969 -0.18835285 -0.033195958 0.5 19.792422 -17.273289 -4.4336202 0.18953074 -0.26229457 0.049480909 1 10 1 7.6271011e-06 -3.8981241e-06 2.9173799e-07 21 -1 1044.8628 
16.041238 2.4132974 5.7284225 13.579465 -0.19674504 0.237837 0.5 -55.776285 1230.1845 -31.520571 -0.26093726 0.37057445 0.020481049 1 10 1 2.6122644e-07 -2.3910771e-06 -1.5894816e-06 25 -1 2041.499 
1.8567007 3.0918296 7.9172449 14.317613 0.22642515 0.12982849 0.5 52.535757 17.14206 -22.407121 -0.040994926 -0.010932879 -0.18932487 1 10 0 
4.3254725 1.5782582 1.5145127 12.944574 -0.48414349 1.4285665 0.5 -20.360996 368.33226 17.524868 0.96292021 -2.8173601 -1.925472 1 10 1 -0.00013649471 1.9570675e-05 -5.0113805e-05 19 -1 2077.9506 
7.3559964 0.64009821 7.3308234 14.379802 -0.26324122 -0.081493685 0.5 -19.729755 11.978275 5.8980537 -0.12315349 0.18248466 -0.17629388 1 10 1 9.7068234e-06 9.586605e-06 -1.5402582e-06 17 -1 299.7932 
16.323971 4.9335802 6.4382193 14.403596 0.094427066 0.057547906 0.5 37.919288 41.283392 -28.024899 -0.11189746 0.22557452 -0.28437385 1 10 1 2.336453e-08 5.1323391e-06 3.3808286e-06 5 -1 2078.8886 
17.357688 2.2904011 7.8880494 14.34821 0.293495 0.1928832 0.5 -34.681267 24.303471 19.930983 -0.2889515 -0.079778258 -0.10899912 1 10 0 
9.5791516 6.9985314 5.5760294 14.007106 0.34588279 0.12973276 0.5 -110.36522 1464.5085 42.091639 0.9724436 1.2920581 -0.48314414 1 10 1 -1.9272112e-05 -2.0242253e-05 -1.9418368e-06 10 -1 2040.7985 
11.324491 3.8638826 2.3653956 13.639625 -0.48748587 -0.30187456 0.5 52.790336 15.586324 -2.4783714 0.1153199 -0.20668788 -1.89228 1 10 1 6.2087298e-06 3.364054e-05 -1.9927821e-05 8 -1 1668.9047 
17.223387 0.58399981 0.55054004 7.6119244 -0.48671972 0.84445013 0.5 -169.72892 11493.531 2.7525119 -0.84240962 13.046635 -0.28865972 1 10 1 5.6786916e-05 -4.8291544e-05 0 -1 0 2079.942 
15.834382 5.7729567 4.7099606 13.685767 0.12318317 0.13757174 0.5 22.898216 -18.589002 -6.9101661 0.23732755 0.106424 -0.16119738 1 10 1 1.7181634e-05 1.0363052e-06 -6.2773311e-06 22 -1 2054.1082 
0.84989266 2.5498565 7.0979797 14.379251 0.29660732 0.16548821 0.5 -16.19593 2.1952999 -9.15946 -0.21772326 0.11585618 -0.17213197 1 10 1 5.6594987e-06 -8.0433872e-06 7.9411725e-07 27 -1 902.3758 
6.8381371 3.5221052 3.2867173 13.356827 0.11643529 0.21058297 0.5 -28.422359 25.993663 -9.1655493 -0.021178246 0.34914389 -0.19600585 1 10 1 1.7274031e-05 2.2702419e-05 -4.422794e-06 33 -1 1012.7083 
2.3617878 2.0179194 4.8396656 13.315032 -0.095151941 0.28591252 0.5 42.890908 -24.245464 5.625607 -0.6195974 -0.44521676 0.68413795 1 10 1 3.5273798e-07 -4.7215777e-05 1.9655628e-05 26 -1 2048.8825 
9.3634283 1.2123886 8.1525973 14.323339 -0.22404513 0.099629701 0.5 5.3057785 8.0014293 5.6097869 0.1516613 -0.060215175 0.16336432 1 10 1 -6.5527986e-06 1.9114345e-05 -4.1397653e-06 29 -1 487.5216 
0.88215898 9.3419259 4.7749817 13.391591 -0.10932444 0.12849234 0.5 31.929042 -45.968164 -2.7888761 -0.49539586 -0.17102092 -0.33071279 1 10 0 
16.365153 7.7881368 8.118338 14.398268 0.16934516 0.057446252 0.5 12.369074 -11.361527 -4.254373 0.17939931 -0.022854908 0.023150232 1 10 0 
2.8535979 1.5421246 7.3480181 14.219626 0.26763101 0.01633195 0.5 -3.6519663 14.913193 -2.0843023 0.070467533 0.082713527 0.34793914 1 10 1 -2.7732291e-05 1.2235351e-05 1.3831911e-05 17 -1 354.6307 
15.786948 1.1886141 2.3575405 13.800024 -0.49318031 0.17535865 0.5 -64.868413 0.46152728 -2.1619609 1.8636396 0.21554067 0.52623132 1 10 1 -1.7260335e-05 -1.4321298e-05 4.4714468e-06 28 -1 2042.4283 
1.8212059 8.8902186 1.456968 13.404416 -0.4202026 -0.89603726 0.5 85.991193 431.55493 -14.581639 1.0841332 0.074530257 -1.2826162 1 10 1 7.1694482e-05 8.9950082e-05 4.8702034e-05 18 -1 1528.5065 
5.3552019 0.63756823 7.3301194 14.316984 -0.12590857 0.0056721798 0.5 -18.111096 21.920999 -1.6868131 -0.31194687 0.24415531 -0.26455898 1 10 1 -9.5817136e-06 -2.5282485e-06 5.0440813e-06 7 -1 2079.5579 
15.328804 9.5634097 0.51885939 5.640553 0.026101446 1.6568183 0.5 -232.88334 18840.956 55.32139 -3.1622237 13.809937 0.64678425 1 10 1 -6.5732112e-05 -7.4374617e-05 0 -1 0 2079.988 
16.878806 9.3465593 4.8008173 13.387807 -0.48171927 -0.08359686 0.5 25.957446 -45.823374 -3.6223995 0.34250225 -0.14634578 -0.77334115 1 10 0 
4.3428965 0.08806232 6.5005717 14.246228 0.1713744 -0.045191895 0.5 31.667345 -21.11074 8.3096186 0.12616047 0.44897299 0.11756465 1 10 1 1.2017277e-06 -1.118071e-06 -3.6157702e-07 45 -1 904.979 
4.8741482 5.6719361 8.9224103 14.281113 0.0069919408 0.054998458 0.5 -6.5917317 -0.93741605 -7.6561709 0.22854342 0.047520551 -0.09113614 1 10 0 
10.388198 5.3819744 1.4067718 11.872017 0.89595749 0.52511622 0.5 176.61111 344.48903 118.27782 2.678563 -3.3635906 2.2211869 1 10 1 9.8053691e-05 0.00021733024 0.00010281386 18 -1 2079.6707 
16.850839 8.4942099 0.52066186 7.3688126 -0.016681896 0.59519267 0.5 -349.54821 19373.718 21.568656 1.3086279 10.949315 -1.9733228 1 10 1 7.5194469e-05 2.6262308e-05 0 -1 0 2079.9628 
2.3873831 0.23342922 4.7796918 13.282998 -0.12163773 -0.0029028677 0.5 27.002359 -48.007863 -13.300314 0.0020426647 -0.31954545 -0.10737526 1 10 1 -4.8851736e-06 5.4997657e-06 -1.3946991e-05 40 -1 212.7392 
5.8447684 4.528775 7.274191 14.251352 -0.0058086431 0.023589682 0.5 -1.7124783 -0.58172266 -9.1747972 -0.021848686 -0.13061714 -0.12585792 1 10 1 -1.1562955e-06 5.7928973e-06 4.0278232e-06 5 -1 282.8372 
13.872039 0.95075588 8.9893782 14.385171 0.022564035 0.10186441 0.5 -22.735317 -2.2316374 1.7252867 0.12703568 0.095022579 0.15467452 1 10 1 -9.5983244e-06 -6.8884981e-06 3.5539159e-06 39 -1 419.5798 
18.480929 9.454747 0.53545147 7.005711 -0.33707612 -0.82155135 0.5 95.117792 11857.252 6.2734517 3.164675 17.528927 1.658116 1 10 1 0.00052086368 -5.3285027e-05 0 -1 0 2079.8804 
13.356719 8.9747771 7.2980595 14.484465 0.016355981 0.25481161 0.5 -8.0501666 46.319551 4.4225619 -0.0546605 -0.14614346 0.27252841 1 10 0 
4.3819886 8.85691 9.7763491 14.347975 0.099852736 0.11377384 0.5 12.742515 -3.8405952 -0.96103558 0.023040551 -0.058466525 0.063493974 1 10 1 -4.0105671e-06 2.4935291e-06 1.1075582e-06 20 -1 354.5006 
0.35071663 7.2117983 7.3029409 14.41171 0.16129038 -0.036472364 0.5 -47.120878 8.2393571 -2.1033513 0.016059266 0.0035574058 -0.021377057 1 10 0 
3.7963036 3.9247016 4.7718621 13.838454 -0.18117285 0.25421441 0.5 49.982299 9.3382143 -14.360146 0.06085207 -0.61745263 0.18633024 1 10 1 1.563142e-07 -5.4497015e-06 4.0872399e-06 11 -1 2077.5358 
6.5164693 3.4409021 1.5314569 13.326443 -0.01383485 0.15941613 0.5 36.523852 368.65567 16.063386 0.71099058 -0.4796052 0.27909643 1 10 1 0.00017332288 -8.8234313e-05 -2.5871869e-05 33 -1 2066.4447 
4.812661 6.324591 3.1320039 13.609178 -0.027501902 0.0064447978 0.5 6.4821795 -28.357545 -1.9763079 0.36869716 0.0050518117 0.15480228 1 10 0 
8.8688732 3.6244915 8.7379753 14.255432 -0.15696674 0.074709932 0.5 10.345828 17.921971 -9.4768064 0.038323103 0.012166483 -0.011074431 1 10 1 -1.4694601e-06 -1.9270926e-06 1.8222605e-06 27 -1 361.0908 
1.7711301 2.0246894 0.52342482 6.7160462 0.23194862 -0.032824133 0.5 30.495345 20425.657 -112.92927 1.6398821 9.556679 1.2969685 1 10 1 6.8095698e-05 3.805074e-05 0 -1 0 2079.8855 
4.3725045 6.5503111 8.9334401 14.310999 0.10334657 0.067432928 0.5 7.8049971 5.1678481 4.9675011 -0.13973302 -0.016549446 -0.088728708 1 10 1 -6.0188007e-06 -3.5134291e-06 5.7920985e-06 49 -1 2079.7608 
7.3721095 6.5308651 8.9091897 14.337355 -0.014825451 0.036132678 0.5 -13.587361 2.1199092 -3.983739 -0.0070004332 -0.01799817 -0.17820518 1 10 0 
5.8713304 7.4065866 8.9237685 14.321907 0.030397211 0.065175529 0.5 -2.3967557 9.786379 -7.5899701 -0.0030177151 0.00083360887 0.085567283 1 10 1 -2.564337e-06 1.4905794e-06 -1.8221888e-07 64 -1 431.6184 
0.8031761 3.1218045 2.4246796 13.326779 -0.45822759 0.24000352 0.5 -57.327461 43.472323 19.273388 0.80101342 0.4983853 0.29647739 1 10 1 7.48548e-05 -0.00014816988 -9.2200165e-05 60 -1 2030.6445 
6.6694041 6.2751914 1.4564306 12.228888 0.30288725 0.49646919 0.5 -32.853036 5008.6571 8.7034381 3.1610234 1.3911371 -3.0880009 1 10 1 -0.00017875701 -9.2606736e-05 4.4955844e-05 18 -1 2076.8385 
3.886181 1.0628134 4.8054807 13.23274 -0.21995398 0.38461486 0.5 -54.101378 488.68087 21.18652 -0.51034798 0.15799232 -0.02846485 1 10 1 -4.0888637e-07 2.9600514e-08 8.0214458e-06 21 -1 2079.9889 
15.788598 4.6260453 3.0535097 13.423917 -0.074749675 0.1852668 0.5 70.42251 -33.46525 -16.126413 0.0051880835 -0.13251111 -0.090899039 1 10 1 -5.2275616e-05 5.4728471e-05 -1.0420638e-06 33 -1 1121.5463 
15.829751 4.668858 0.49862668 7.9602318 1.3884399 -1.1290399 0.5 -202.74375 17904.273 -6.132005 -1.7920925 16.197768 1.4814056 1 10 1 -0.0007165135 0.0025555133 0 -1 0 2080 
9.2856141 5.3794178 1.397572 12.104257 1.0710634 1.3403275 0.5 199.43327 364.34661 106.76277 -2.0543503 0.87584968 -1.280166 1 10 1 0.00018421486 -0.00015689404 -6.90539e-05 18 -1 2079.8121 
12.361834 4.2592361 8.0611873 14.35007 -0.045465124 0.14953187 0.5 11.101955 -17.464175 13.137932 -0.10902008 0.2615201 -0.021637416 1 10 1 -1.8983632e-06 6.3727357e-06 3.5470114e-06 4 -1 420.0989 
8.3509323 1.8277505 6.5274674 14.326038 -0.15283237 -0.033332357 0.5 -12.387363 -27.144998 9.1110459 0.29545061 0.22947778 -0.0061374247 1 10 1 -7.8828396e-06 -1.1889456e-06 6.2817468e-07 26 -1 2051.2573 
6.279399 6.6221467 2.3019778 13.700839 0.51664876 1.375927 0.5 -2.2151531 9.5933019 0.99731818 -0.73051371 0.50380226 -1.1629541 1 10 1 0.0029750945 0.002241876 0.00045233573 68 -1 2080 
8.2835292 6.6012348 2.257888 14.044359 0.66956209 -0.34401545 0.5 2.4801794 18.606424 1.7098507 0.22831743 -1.0970264 -0.38650935 1 10 1 -0.00018168374 -0.00014877858 0.00015945328 68 -1 2076.9053 
9.8363927 2.2134662 3.9895914 13.755558 0.31521798 0.012653286 0.5 -39.856645 -11.764363 -6.6462711 0.46309972 -0.0082297473 -0.27965927 1 10 1 6.1289803e-06 -1.5357316e-05 -1.0517966e-05 38 -1 518.2011 
19.272889 4.9885425 2.2273861 13.580867 -0.75692792 0.070743634 0.5 34.963003 -5.1428129 14.295191 0.024784685 -1.207662 -0.44749829 1 10 1 9.0529809e-06 -2.5188517e-05 -1.5923822e-05 50 -1 2055.2415 
7.8475359 8.6152045 3.9394301 13.136804 0.15778527 0.12700914 0.5 -37.344322 -3.5455646 -8.5543674 0.27151954 -0.53084199 -0.16285598 1 10 1 9.1231469e-06 -1.4374178e-06 -5.6783512e-06 47 -1 622.5786 
12.338798 4.8285206 6.4173649 14.309755 -0.24583962 0.071979631 0.5 75.107754 12.198739 1.0674286 0.55237233 0.50905074 0.26670572 1 10 1 3.3816988e-06 -6.6872451e-06 5.5220611e-07 3 -1 2078.0901 
8.8772681 0.95419276 4.7776387 13.153959 0.63430934 0.01072812 0.5 -3.536354 -0.48986423 9.9160708 0.4287187 0.21756768 0.10223324 1 10 1 -1.3177495e-05 5.5120466e-06 4.7578013e-06 69 -1 1027.3112 
5.3213189 7.2020059 3.1267227 13.589155 -0.050638586 0.60063858 0.5 6.0153465 -39.664809 -0.94907464 -0.36430187 -0.52412062 0.050816049 1 10 1 8.9070464e-06 -5.1614618e-06 1.950756e-05 61 -1 2079.8845 
6.3559012 0.63400158 7.3374394 14.390985 -0.12197624 0.046010907 0.5 -21.62112 14.350127 -1.0657248 -0.31502858 -0.10707502 0.16890458 1 10 1 1.0309994e-06 3.3217046e-06 1.8429542e-06 7 -1 2079.9996 
5.7818293 4.5566955 3.0936166 13.624372 -0.25839354 -0.014646671 0.5 77.8804 -27.36532 -19.08039 -1.0692723 0.30409262 -0.39428361 1 10 1 -4.9552169e-05 -3.0747305e-05 5.454638e-05 37 -1 1388.3698 
5.3098439 0.80738308 3.1989196 13.312033 -0.13780908 0.1923049 0.5 -6.7278111 -62.508046 -1.7341082 0.45589669 0.31323869 0.0090336972 1 10 1 6.7056103e-06 3.1029563e-06 -6.2649138e-08 43 -1 1098.6743 
9.0811572 4.3004865 1.3690853 11.282562 0.082132194 2.3754566 0.5 -32.444683 271.39413 -251.56381 0.41932058 -0.1309655 1.138793 1 10 1 -6.1537094e-05 -1.067478e-05 -0.00010073717 72 -1 2079.3593 
3.212199 3.62882 5.6035981 14.032924 -0.028275225 -0.20875204 0.5 -95.145563 1266.7656 -56.65894 -0.26547779 0.85544169 -0.28075356 1 10 1 8.2727917e-06 -2.6416594e-05 -1.500198e-05 59 -1 2034.6599 
5.8075654 5.1190605 3.922477 13.458608 0.5533048 0.25142076 0.5 8.6529742 0.71355609 5.7068725 -0.71625727 0.60682801 -0.59655654 1 10 1 -5.4127763e-05 -1.4772378e-05 1.1713149e-05 84 -1 2079.9972 
8.8015186 1.6702914 3.1621848 13.349661 0.37744424 0.38111903 0.5 -26.896743 -23.284159 14.291203 0.0054700161 0.18748778 -0.69270932 1 10 1 -6.0423263e-06 3.7721444e-06 2.680804e-06 77 -1 1394.5857 
3.9888435 5.8006214 0.51454672 6.4621896 0.047864202 -0.33999386 0.5 -87.478059 21245.329 154.82253 -0.14096044 12.099687 -2.3339506 1 10 1 -0.00013335937 -0.00011510407 0 -1 0 2079.9574 
7.2712465 4.8320639 2.2595997 13.673532 -0.40840003 1.0215219 0.5 36.572907 16.470125 6.5111722 0.82093086 0.4857731 -0.26022776 1 10 1 2.8439667e-05 -7.3954652e-05 -5.058329e-05 50 -1 2024.2055 
11.35076 7.1788301 7.2712994 14.405378 -0.14501711 0.18093511 0.5 -24.517235 6.6895233 5.481665 0.11015081 -0.13533903 -0.064330646 1 10 1 -7.0165588e-07 -4.139993e-07 4.4183667e-07 24 -1 903.3665 
2.6862186 6.2344793 5.6189408 14.231332 0.1558601 0.056043806 0.5 -30.852015 1439.6311 95.630078 -0.14770861 0.64588252 0.28486421 1 10 1 1.5863049e-05 3.0622173e-05 -2.1669142e-05 10 -1 2071.1103 
15.873078 7.4743232 8.9309957 14.320466 0.16949933 0.0090583804 0.5 -2.2143156 9.4622332 -31.404749 -0.083014475 -0.072239268 0.026352949 1 10 1 -1.2673774e-06 -3.7621432e-06 -2.2125162e-06 41 -1 2079.9728 
18.149706 3.6638681 5.5642199 14.05156 -0.049312617 0.1593625 0.5 -74.56658 1294.7603 -33.010959 0.13119861 1.2838956 -0.25470061 1 10 1 -1.8872388e-05 -7.8679394e-06 7.9598997e-06 59 -1 2047.4317 
16.355866 0.71408568 7.3363918 14.286847 0.15626614 0.056965749 0.5 -14.243488 -1.8197027 11.192871 0.15152676 -0.12804069 0.077758707 1 10 1 -4.3347713e-08 7.3257618e-07 -3.8061664e-06 48 -1 262.1787 
8.8553025 3.0503069 7.9192168 14.271469 -0.17751514 0.11614605 0.5 4.9745189 -16.554069 7.9797409 -0.052569221 -0.095930527 -0.02544804 1 10 1 1.3606591e-06 5.9982e-06 -4.2021387e-06 62 -1 2079.9724 
17.144258 9.8392393 1.4786683 13.647696 -0.43670242 -0.089144522 0.5 104.13823 390.76855 22.844042 -1.418161 1.9127147 -2.9822849 1 10 1 0.00019425461 -0.0001146573 1.7817116e-05 46 -1 2079.7108 
17.305986 5.604434 3.0864842 13.819821 -0.2641681 0.23459618 0.5 13.829146 -30.759328 -8.5450231 0.10056262 0.53186868 -0.051523854 1 10 1 4.7776851e-05 2.1737072e-05 -2.1532782e-05 2 -1 1127.624 
1.8699106 3.6579943 8.7413435 14.341126 0.20960624 0.1919581 0.5 -6.8367579 -6.5497938 14.259438 0.10808837 0.032378935 0.11914143 1 10 1 8.6042849e-05 1.109327e-05 -9.0004242e-06 27 -1 2080 
7.2951535 0.19321786 2.3599975 13.736588 -0.57222821 0.35250351 0.5 12.830837 26.351592 3.7265994 0.71923297 0.99227724 -0.67902501 1 10 1 -7.5648366e-05 -5.3765553e-06 5.1143172e-05 98 -1 2047.42 
8.3963895 2.8389737 0.60581942 5.878524 -0.05566773 0.81460806 0.5 77.600067 19060.525 -148.69763 -6.8827628 7.9690727 0.77647022 1 10 1 1.2332298e-05 -8.0697186e-05 0 -1 0 2079.9151 
10.358742 2.206112 7.8969263 14.257845 -0.29106963 0.21471809 0.5 9.193333 16.34283 15.742385 -0.2387216 0.21695869 0.03626661 1 10 1 1.5222741e-06 -3.903407e-06 2.0626852e-07 39 -1 310.2546 
17.860735 5.1808684 8.0862376 14.367913 0.13765114 -0.013200497 0.5 1.3121891 -1.1771612 -1.6818529 -0.059868328 0.024477145 -0.02544959 1 10 1 -5.2634153e-06 -1.1383486e-05 7.4571508e-06 49 -1 358.5944 
10.316449 2.5369055 3.1728515 13.704859 0.4497495 0.44791989 0.5 41.045127 -39.207143 -4.8665494 -1.0561011 -0.52059661 -0.049343422 1 10 1 -8.1012617e-06 -2.278299e-05 -1.3794991e-05 77 -1 2079.9816 
5.3378585 4.8339566 6.4513416 14.267775 0.068900702 0.016206339 0.5 39.902086 -12.799077 -0.56691123 0.03374146 -0.12485437 0.056554194 1 10 1 9.7040099e-06 2.1445739e-06 -5.367145e-06 53 -1 2079.4766 
10.61076 1.2248603 0.61044327 6.6929114 0.31593975 0.1669628 0.5 -466.00612 19109.921 -8.1034646 -6.3624763 10.731302 0.5489769 1 10 1 6.5626463e-05 -0.0004282654 0 -1 0 2079.9038 
14.789747 4.5897616 3.0426487 13.54471 -0.045621182 0.078445973 0.5 81.185373 -40.204784 -5.7420899 0.28087191 -0.26083317 -0.18659787 1 10 1 -1.477505e-05 0.00044046919 -0.00011267475 70 -1 2080 
8.6425273 1.6385589 1.4706463 14.30228 0.91374393 -0.067924652 0.5 9.9496825 400.73581 14.310313 2.2403616 -4.1585631 -0.86978694 1 10 1 -7.6243504e-05 -1.4035756e-06 -1.5371297e-05 23 -1 2077.853 
8.8623238 7.4315863 4.7348822 13.512716 0.42447109 0.16096925 0.5 42.08621 -34.923933 -3.8930028 -0.091339157 -0.21875763 -0.067348098 1 10 1 1.5910635e-05 1.9786676e-05 8.2028722e-07 32 -1 2079.1741 
2.3537626 4.2613043 8.1074049 14.337701 0.20790668 0.11241038 0.5 -0.21231725 -5.3030262 3.4119745 -0.057939236 0.029626806 -0.090804907 1 10 1 -2.245306e-06 1.8375323e-05 1.5773802e-05 100 -1 2080 
9.3560219 0.6489131 7.3176371 14.442292 -0.11561144 0.12356682 0.5 -15.357382 12.493838 -3.516377 0.080746486 -0.056515925 0.0063005505 1 10 1 -6.6720393e-06 8.3498443e-06 -5.562111e-06 39 -1 2079.4318 
19.803291 3.1216224 2.4192748 13.800925 -0.75249446 0.082721255 0.5 -23.19436 53.798723 5.8825768 -0.45763454 0.18394964 -0.20518607 1 10 1 1.3767e-06 -0.00012482215 -0.00025048525 67 -1 2080 
9.8549949 3.0716271 7.9274447 14.283778 -0.10188185 0.11123217 0.5 17.299359 9.8334469 -15.144422 -0.13367644 -0.047312278 -0.18318987 1 10 1 -1.3026277e-06 7.2574125e-05 -2.9785093e-05 97 -1 2080 
2.8129222 0.031243747 3.1260697 13.682001 -0.50206795 -0.018320552 0.5 -21.6403 -49.356941 5.1283986 -1.0079972 -1.5714546 0.024110046 1 10 1 -1.6450982e-05 -4.0470973e-05 -2.7659366e-05 101 -1 1009.4711 
4.7881775 5.763157 2.3012735 13.430047 -0.12677004 -0.28335076 0.5 -59.142325 88.876205 -8.1092763 -0.094311312 0.45467816 0.4144231 1 10 1 -9.3948693e-06 -1.5219212e-06 1.3331503e-06 61 -1 2079.9797 
19.855141 8.0828625 7.3186569 14.4329 0.14521441 0.051929282 0.5 -38.258625 -2.2242651 8.8913493 -0.11581341 -0.044748802 0.14689221 1 10 1 4.2167319e-06 2.4732479e-06 -7.0884856e-06 58 -1 2079.8584 
16.512806 0.77613745 1.4532007 13.113231 -0.24485474 -0.64393281 0.5 0.21828115 373.89364 2.6582123 -0.41439341 1.3318424 -0.39552679 1 10 1 -3.9380545e-05 -2.3076013e-05 -2.0984706e-06 98 -1 2079.8684 
5.3506947 8.3143915 6.4896146 14.35024 0.023157026 0.015105337 0.5 41.132379 -23.280741 6.2018043 -0.10964847 -0.21200648 -0.075836001 1 10 1 -5.118699e-06 -8.9001119e-06 5.443684e-06 56 -1 307.9083 
16.846827 8.7897335 3.9630203 13.496833 -0.47751517 -0.1990905 0.5 -66.455434 -9.0727471 -15.138777 -0.16883886 0.46403578 -0.22331721 1 10 1 8.0339336e-06 -1.6914069e-05 1.0854727e-05 47 -1 2079.9399 
16.845725 4.6213585 7.2652915 14.3482 0.19778482 -0.050250664 0.5 4.7903142 -7.0804182 -7.198324 0.14843362 -0.026388773 -0.079804807 1 10 1 -1.4120166e-06 -5.7541822e-07 -1.0645939e-06 5 -1 2080 
17.651556 8.9709403 1.4200529 12.758283 0.41094017 1.3880393 0.5 53.300532 1142.7169 8.6108971 -2.7495767 -1.1477839 -2.2872226 1 10 1 0.0001981349 3.2465516e-05 -5.3494969e-06 51 -1 2079.8545 
19.849092 6.3464178 7.2889158 14.43384 0.16842719 -0.0033965934 0.5 -42.494038 13.887553 -8.0378057 0.13467928 -0.12345602 -0.21814375 1 10 1 1.3164207e-06 -7.7308783e-07 6.7259167e-07 58 -1 2079.9891 
10.379254 0.13959708 4.7858455 13.228747 0.579905 0.043921008 0.5 -3.5432583 -26.409911 -11.947813 0.002384944 0.065368156 0.48889013 1 10 0 
9.3189 4.7464691 4.6897864 13.582326 0.56291376 0.14824303 0.5 73.265697 -12.883745 -13.529829 -0.50247206 0.27921978 0.38202308 1 10 1 9.2794698e-06 -3.4011884e-06 -7.6211536e-06 3 -1 2076.9309 
12.242921 4.3497145 1.45576 12.908552 0.43963801 -0.73162133 0.5 -78.042551 279.66729 -251.89329 2.7022778 2.3746176 2.2961266 1 10 1 0.00034382965 0.00026332769 0.00023350887 71 -1 2077.2795 
15.80327 7.6644655 2.3096383 13.546128 -0.31915226 -0.29720582 0.5 -54.42338 -5.145151 8.6528842 0.81142496 -0.01938944 -0.040235247 1 10 1 3.2990997e-05 -2.4804032e-05 -2.2255252e-05 82 -1 1097.6397 
1.354756 0.68179965 7.3537499 14.415453 0.20142162 0.079448729 0.5 -26.074417 2.9121546 -7.3689987 0.052720686 -0.082841454 0.00035018515 1 10 1 7.3449699e-06 -1.5996723e-06 -4.0359985e-06 17 -1 483.8308 
14.367048 2.8324755 8.7219724 14.371928 0.06872665 -0.01307347 0.5 -32.654143 10.591534 -6.6381643 -0.10741046 0.088075142 0.13889747 1 10 1 4.5866341e-06 6.1952976e-06 -4.3871362e-06 103 -1 425.7578 
4.3506703 6.5820155 6.4802814 14.332187 0.11854283 -0.020812706 0.5 63.367911 10.533909 2.9320025 -0.0010676452 -0.0067148482 -0.086955691 1 10 1 -9.6861888e-06 7.8433118e-06 -1.6426319e-06 93 -1 2076.6663 
19.843472 1.0236476 6.5304819 14.38822 0.22964754 0.059315431 0.5 39.426438 -17.208204 7.0166246 0.14947918 0.0074929551 0.11152641 1 10 1 -1.087269e-06 -3.6279994e-05 3.0932783e-05 17 -1 2080 
4.8237518 8.1152034 3.1572007 13.112035 -0.45348047 1.0892006 0.5 11.46738 -35.964149 -8.8346589 1.4429856 -0.62673993 -0.46378747 1 10 1 -4.8106809e-06 -3.3675842e-06 4.6131976e-05 82 -1 2078.3891 
2.2074721 0.68827368 5.6515738 14.025453 0.081950684 -0.046062033 0.5 -104.10959 1359.537 -30.698488 -0.56465431 0.80563323 0.52515818 1 10 1 0.00050813734 2.8080907e-05 9.0203772e-05 52 -1 2080 
11.847764 4.5464242 7.2469311 14.447702 -0.1658851 0.18139329 0.5 -15.880837 9.2813092 -1.8381325 -0.0036820396 0.19142141 0.13219359 1 10 1 1.6248926e-06 1.0588227e-05 4.7760897e-06 80 -1 2079.8268 
8.8468023 0.39696216 3.9417319 13.353213 0.44732768 0.2172194 0.5 -19.585067 15.829244 -4.0013799 -0.74222009 -0.23768848 -0.26083474 1 10 1 4.6187915e-06 -1.6376302e-05 1.0600634e-05 81 -1 2079.957 
16.290006 2.1178654 2.4073575 13.77485 -0.080216148 -0.43729812 0.5 28.889928 -9.3856612 2.8972225 -0.3476398 -0.55875159 0.91926188 1 10 1 -8.2206255e-06 2.7749253e-06 0.00015923862 43 -1 2078.9733 
5.8255851 8.0682649 3.1420751 13.514399 -0.21018567 0.12404822 0.5 10.270389 -27.719065 0.092947865 0.63417164 -0.088811901 0.23130463 1 10 1 1.6684323e-07 9.6484852e-06 -2.7421002e-05 132 -1 2079.9956 
0.35489449 0.69613665 7.3512082 14.378692 0.23803041 0.22258605 0.5 -15.061403 6.7461732 2.3635414 -0.070719028 0.27489374 -0.15106356 1 10 1 -5.199158e-07 -2.9314824e-05 3.91695e-05 128 -1 2080 
7.8476523 0.9575552 6.5097867 14.362092 -0.12877119 -0.038457895 0.5 28.992502 1.1104469 -9.0521577 0.57157306 0.092193858 -0.017391954 1 10 1 4.7520274e-06 1.2556271e-06 3.3489971e-06 29 -1 2079.8878 
18.858693 3.1562739 7.8936301 14.273055 0.26194845 0.10087116 0.5 33.882933 -3.0488487 2.3872842 0.057344627 0.089513506 0.057664597 1 10 1 8.3151178e-06 7.1185715e-08 -4.5576087e-06 100 -1 448.7065 
11.319632 4.6938569 4.6491378 13.652906 0.2082465 0.25017267 0.5 39.717622 -19.323466 -16.4196 -0.38634916 -0.54165854 0.012055583 1 10 1 -0.000675627 -2.8306777e-05 -0.00015267241 3 -1 2080 
6.8528932 9.1906059 6.4945219 14.357996 -0.17466858 0.079926702 0.5 30.133111 -13.985877 3.7745919 0.025275596 0.011493561 -0.47711649 1 10 1 -5.4469501e-06 7.7281503e-07 2.488644e-06 48 -1 315.2848 
1.839304 3.9965454 6.4580243 14.213367 0.09098302 -0.0086671443 0.5 -28.158882 -15.551241 3.4249032 0.32135798 -0.011252896 0.14320567 1 10 1 -1.3596082e-05 -1.8351043e-05 1.4725994e-05 95 -1 2071.8691 
12.998161 7.7234222 0.52437953 5.5450289 1.529611 0.66529392 0.5 -43.606811 21091.462 -20.179941 0.59627227 9.6840669 1.4564687 1 10 1 1.7290726e-05 4.5474113e-05 0 -1 0 2079.9642 
2.3395618 1.8518958 6.5376802 14.206757 0.31368075 0.18445449 0.5 -20.13841 15.363175 -16.334113 0.02798042 0.11564041 0.097627529 1 10 1 -3.8854419e-06 -9.2495002e-07 2.094999e-06 42 -1 2079.2001 
10.805665 9.9195667 3.1204139 13.291719 0.31621605 -0.08818121 0.5 36.290316 11.776883 39.132954 -0.32735861 0.41115322 -0.078266516 1 10 1 2.6559658e-05 5.7302626e-05 5.2947937e-06 101 -1 1396.345 
12.760872 6.9870544 5.6058466 14.072601 0.19568637 0.067004792 0.5 -88.719406 1462.4871 57.521957 0.13348465 0.58317483 0.14414217 1 10 1 -2.5077675e-05 -3.2937458e-05 -1.0773766e-05 110 -1 2071.1078 
19.788488 5.8901084 2.2371276 13.523201 -0.70292884 -0.44848976 0.5 -32.574355 9.5392517 9.7137838 0.8216606 0.82603484 -0.50183812 1 10 1 -3.0312834e-05 1.8322058e-05 -1.3350122e-05 78 -1 2079.4366 
15.845982 4.6185113 7.274401 14.304337 0.13323842 -0.053431704 0.5 -2.9890023 -4.1356503 -7.6844814 -0.081410172 0.026982907 0.15425637 1 10 1 7.473098e-07 1.5675396e-05 8.6913841e-05 121 -1 2080 
9.2855938 6.6076381 2.2608587 13.731444 0.4850229 -0.12664261 0.5 19.949647 1.012148 3.6906496 0.098808779 0.086484813 0.38185117 1 10 1 7.9684718e-08 1.5033548e-05 3.6859009e-05 76 -1 2079.9762 
7.8606354 5.091911 8.0892004 14.360863 -0.09523992 0.0036691712 0.5 21.181137 -1.1111828 -8.1624302 0.028361157 -0.18362185 -0.013641906 1 10 1 6.5703055e-06 2.4555954e-06 -5.0802213e-06 53 -1 484.5777 
0.87469551 5.7161697 8.9313763 14.363615 0.14789039 -0.005035768 0.5 -3.3207961 10.359623 -8.3403704 0.067859018 -0.00055012161 0.024589943 1 10 1 -1.7200377e-06 1.353157e-06 6.1145702e-07 104 -1 453.031 
4.351391 6.5893936 4.7857702 13.582368 -0.086562321 0.19255185 0.5 29.776989 -17.406982 -10.881797 -0.4137437 0.080869374 -0.045785305 1 10 1 3.0350937e-06 -2.7811909e-06 -2.9529675e-06 22 -1 2074.9687 
0.062723319 2.4390141 5.7272638 13.92844 0.021665007 0.021391878 0.5 -83.744119 1192.7458 -9.92554 -0.60189449 0.55407796 0.18549044 1 10 1 6.021253e-06 4.7694229e-07 -4.2533166e-06 145 -1 2076.0448 