restart_version 2
name H20A12L0M0.5B0.5
xmin 0 xmax 20 ymin 0 ymax 10 zmin 0 zmax 24
dt 0.0001 t 26 tmax 500 save_count 10000
dim 3 gravity 0.20791169 0 -0.9781476
options_fstat 0 options_data 0 options_ene 1 options_restart 1
Species 1
k 200000 disp 25 kt 57142.857 dispt 25 mu 0.5 rho 1.9098593 dim_particle 3
Walls 1
numFiniteWalls 0 normal 0 0 -1 position 0
WallsPeriodic 2
normal 1 0 0 pos_left 0 pos_right 20 shift 20 0 0
normal 0 1 0 pos_left 0 pos_right 10 shift 0 10 0
Particles 4000
6.7834697 8.9496131 6.4474967 -5.0935179e-05 -6.4840966e-05 -8.0163003e-05 0.5 0.80773434 -0.41809558 -0.50858463 7.5245e-05 9.2065967e-07 -1.8417818e-05 1 10 0 
14.124906 6.250129 8.8711422 1.5848916e-05 -1.8999122e-05 -3.7258215e-05 0.5 -1.8869606 -1.4195035 0.43756125 2.344599e-05 9.7927973e-06 -2.2034366e-05 1 10 0 
5.0985368 0.053208193 3.0685582 -2.8749652e-05 -6.5603249e-05 -0.00010121931 0.5 0.28691149 -0.53287818 0.97698337 -7.3992121e-05 7.3135108e-05 6.54485e-05 1 10 0 
16.618176 4.5518181 2.8290851 3.4257433e-05 -2.8710513e-05 3.6078385e-06 0.5 -0.45286327 -0.071784306 0.18167053 1.9302159e-05 5.8138328e-05 5.073953e-05 1 10 0 
17.250881 8.8667903 6.5723639 2.5214556e-05 -7.4670469e-06 -4.8955554e-05 0.5 -1.4469668 1.2182377 -0.45578579 9.0681258e-05 4.1805424e-05 -0.0002396846 1 10 0 
4.5677308 5.7161375 10.351603 -3.1704999e-05 2.7735798e-05 -8.5823487e-05 0.5 -0.58021998 -1.1648476 -0.059852257 -1.0215837e-05 -2.7309407e-06 -1.4873536e-05 1 10 0 
14.034243 8.9496479 1.0924746 5.285866e-05 8.8550404e-07 -8.5249986e-06 0.5 0.27028296 -1.1488988 -0.027641818 -4.6088812e-06 -8.2072234e-06 2.161597e-05 1 10 0 
12.268341 3.1686964 7.7967123 4.8883107e-05 -5.2229099e-05 -7.4265085e-05 0.5 0.72080619 0.18064927 0.37103983 -6.2127937e-05 0.0002073917 -6.1425508e-05 1 10 0 
3.0208351 7.0122039 9.1697003 -3.524828e-05 4.0095219e-05 -4.9462585e-05 0.5 -1.3333537 0.076334975 -0.44026187 1.5937956e-05 3.6909681e-05 2.3163254e-05 1 10 0 
8.4497894 4.240036 5.4469183 -5.6578967e-05 -0.00010333118 -8.0721482e-05 0.5 0.34408789 0.54995922 -0.5271498 -8.2436586e-05 4.9836879e-05 1.2392264e-05 1 10 0 
7.2894456 6.3016278 4.0521391 -2.2428941e-05 -0.00010127242 -4.6579433e-05 0.5 0.54755992 -1.6108076 0.23467016 0.00020351185 -0.00028433317 -0.0002008248 1 10 0 
1.245721 1.9779136 9.2011097 -1.3582121e-05 3.6988345e-05 -7.5298862e-05 0.5 -0.76630162 -0.064398566 0.080241048 -8.3567826e-05 9.8335642e-05 0.00011200056 1 10 0 
19.582146 2.5434165 9.3551408 -6.997593e-06 2.2122179e-05 -2.0528015e-05 0.5 -1.4370123 -0.31981846 -0.50819092 1.1965359e-05 5.4754787e-05 5.4852937e-05 1 10 0 
4.5586642 9.2251372 3.2188911 -1.449371e-05 -5.9788061e-05 -6.4534597e-05 0.5 0.86004172 0.51923985 -0.53663533 5.6990221e-06 -2.7063988e-05 -3.4127409e-05 1 10 1 5.1127633e-05 -3.3927926e-05 -3.2749099e-06 2 -1 26 
8.990223 6.3731729 2.0438316 6.1538501e-06 -9.6636226e-05 -4.8040869e-05 0.5 2.3889209 -0.66414999 0.050223422 -1.1454284e-05 -0.00011607064 -0.00012138169 1 10 0 
2.6742983 6.9401918 6.3400763 6.8250175e-06 1.4491333e-05 -4.0621528e-05 0.5 -0.24612416 -0.34695588 -0.93782858 -9.1353346e-05 -4.8965043e-05 6.5690723e-05 1 10 0 
2.6183853 3.1985562 5.3640849 -5.3285777e-05 -2.356587e-05 -6.9561289e-05 0.5 -0.78987806 0.94447464 0.33256582 5.020284e-05 0.00016634049 -0.00017081882 1 10 0 
4.5684703 7.0197834 8.1823272 -2.5533858e-05 -6.4943423e-05 -0.00010356914 0.5 1.0566857 -0.65555774 0.53694147 -8.6002607e-05 -4.8334168e-05 3.4184066e-05 1 10 0 
18.529386 6.7274192 5.0606544 5.768024e-06 4.7105854e-05 -2.0027016e-05 0.5 -0.6284739 -0.50644218 0.36629802 6.1203696e-05 -4.9096388e-05 9.0058336e-05 1 10 0 
18.280996 0.1230072 8.7762979 1.4736118e-05 1.6439309e-06 -3.8772334e-05 0.5 -0.61481762 0.1702985 0.58913969 -3.9831013e-05 -3.1099802e-05 1.6561026e-05 1 10 0 
8.9185205 2.7672365 4.5423943 -1.201034e-06 -7.5972453e-05 -6.0474523e-05 0.5 0.84332962 0.19330024 0.55118695 9.2078623e-06 -4.1301581e-05 6.955474e-05 1 10 0 
16.768131 1.5915804 4.7185381 -2.3918731e-05 2.2481882e-05 5.6622907e-06 0.5 0.76283169 0.0094242283 -0.4995954 -7.1339254e-05 -2.6575722e-05 7.4836536e-05 1 10 0 
15.8014 9.4347 6.8195882 4.4267782e-05 -2.686767e-05 -3.940821e-05 0.5 0.94098534 0.1700816 0.48334435 9.2500133e-06 -4.8320694e-05 0.00017070649 1 10 0 
14.50052 0.23524594 5.7945712 -5.3866846e-05 3.8065696e-05 -7.5155169e-05 0.5 -1.0136779 1.4748828 -0.78501731 -5.3845193e-05 -5.5791291e-05 -5.5400087e-05 1 10 0 
19.34867 3.3621469 2.2170884 2.6710977e-05 -9.7146623e-05 -7.060887e-06 0.5 1.486064 -0.79209519 1.343526 -0.00033976928 1.0654448e-05 6.6606211e-05 1 10 0 
4.0414446 3.4382711 7.6178357 -2.9671074e-05 1.5107291e-06 -0.0001017147 0.5 1.1424056 0.73058256 0.3539706 -1.5287187e-05 0.00010876247 -5.6812342e-05 1 10 0 
14.911304 4.0541494 0.49989274 2.6826297e-05 1.7431647e-05 -9.1499697e-06 0.5 -1.5321225 1.4852897 2.3713607 -5.5278387e-05 3.277312e-05 5.8109371e-05 1 10 1 0.00010636278 2.9668762e-06 0 -1 0 26 
6.5281223 3.9989505 7.2230302 -8.588039e-05 -0.00010066464 -8.0296543e-05 0.5 0.35912956 0.069508271 -0.062550745 5.0879424e-05 -0.00020471141 3.9002198e-05 1 10 0 
1.07861 2.2802911 3.8582158 2.2617297e-05 -3.8732318e-05 -1.5494854e-05 0.5 0.83341032 -1.3622532 -0.61904815 -5.4498695e-05 0.00026135906 0.00027646927 1 10 0 
11.205532 8.9967917 3.6603317 -5.9297582e-05 -5.4904639e-05 -5.7097318e-05 0.5 -0.41229265 0.61253383 -0.41190216 0.00010606098 9.6225614e-06 -9.8755767e-05 1 10 0 
8.5272401 3.1547081 5.908929 -1.5833401e-05 -6.3841401e-05 -5.9162609e-05 0.5 0.72661559 -0.26257341 0.89671538 -0.00018558411 9.8778763e-05 0.00011576715 1 10 0 
16.838371 0.075593365 6.5101993 7.0155003e-05 1.0046477e-05 -1.9962144e-05 0.5 -0.42349318 0.22492959 -0.59779047 0.00011684055 -1.7062283e-05 -6.5913242e-05 1 10 1 -7.9384889e-06 4.7710801e-06 4.0643861e-05 4 -1 3.8672 
5.8008344 6.3080788 5.6209494 -4.5425859e-05 -6.4842603e-05 -9.0299951e-05 0.5 -0.18273805 -0.69007561 0.53870098 5.4729953e-05 -9.484294e-05 -4.9510487e-05 1 10 0 
18.780241 2.1064059 4.717265 7.2267388e-05 9.9032644e-05 -7.976279e-05 0.5 0.22241671 -1.0126394 -0.41028505 0.00025806707 6.1586365e-05 0.0003735281 1 10 0 
10.966312 1.4650652 7.604906 -1.3992577e-05 -3.7259353e-05 -0.00012290328 0.5 0.49888078 -0.78291909 0.05058189 -5.6747503e-05 -7.2461845e-05 -6.9090822e-05 1 10 0 
12.213828 1.6490588 0.49983834 9.7648064e-05 -3.8251112e-05 -4.5964248e-06 0.5 -0.83631152 1.2086159 -0.34222803 5.7771379e-05 0.00016342761 0.00025079897 1 10 1 -5.2013877e-06 -0.00018499265 0 -1 0 26 
9.4327727 7.7414357 3.2656666 4.7114084e-06 -6.830379e-05 -4.6589887e-05 0.5 -0.6157581 -0.016865098 0.42336111 0.0001593688 -3.945343e-05 -5.4832343e-05 1 10 0 
10.888949 9.352999 6.395421 -8.5149383e-05 -6.03085e-05 -8.688881e-05 0.5 -0.79061958 0.032710133 0.35166082 -0.00011080317 8.7016917e-05 0.00011972282 1 10 0 
5.9111705 8.3166048 7.2705624 -3.5257369e-05 -6.3568186e-05 -0.00010992015 0.5 -0.51912146 0.25959073 0.31753159 -3.0394547e-05 -4.2134344e-05 2.2086466e-05 1 10 0 
13.547112 2.7493604 6.9765724 8.8190541e-05 1.4065086e-05 -3.9780958e-05 0.5 0.92841428 -0.75943121 -0.37321334 1.8227313e-05 0.00030140945 -0.00015455444 1 10 0 
0.75074364 6.2651185 9.0019041 -4.7333382e-06 8.2503961e-06 5.8378124e-06 0.5 -0.95756649 2.0835868 -0.79358618 -8.8784096e-05 -4.3753833e-05 -0.00010735854 1 10 0 
11.477276 3.0386852 8.3943898 -1.1798334e-05 9.7268377e-06 -0.00015856111 0.5 -0.58856879 -1.3301904 -0.89725961 0.00024583309 -0.00036903063 -0.00021495886 1 10 1 4.2388438e-06 -7.5412835e-06 3.9699538e-06 7 -1 26 
3.325906 4.0367058 4.403601 -5.2520383e-05 -0.00013090778 -0.00014034077 0.5 0.16748682 0.41558482 1.2169201 0.00016709955 -9.2556541e-05 3.9047816e-06 1 10 0 
14.392356 2.5878679 5.779341 5.610382e-05 5.3219636e-05 -7.0419242e-05 0.5 1.4188787 -0.69860074 -0.11054957 -0.00014170964 -0.00011262257 -7.192659e-05 1 10 0 
4.6934262 6.7633665 6.4813167 -2.1867051e-05 -2.7162742e-05 -3.7885839e-05 0.5 -1.2736303 0.71070996 -0.18977126 4.0827271e-05 7.9420107e-06 -0.00020056465 1 10 0 
18.716591 2.0100732 6.988694 2.7515229e-05 1.268725e-05 -3.1096541e-05 0.5 -1.4214753 1.9012744 -0.32511492 1.8737945e-05 -1.3006193e-05 0.00026773148 1 10 0 
18.726593 5.1404844 3.7192171 1.7169813e-05 -1.1571517e-05 -1.2147717e-05 0.5 0.41569075 -1.0794699 0.029862568 8.8727392e-05 -9.1987696e-06 -3.9147321e-06 1 10 0 
5.5267884 9.1540034 2.979445 -2.3903705e-05 -7.9069569e-05 -7.6901807e-05 0.5 0.59523714 0.5802453 -0.50857494 -5.6217487e-05 5.9005163e-05 -3.4963219e-05 1 10 2 2.4126971e-05 -0.00015302253 0.00014300912 13 -1 26 -2.087442e-05 -1.0364278e-05 4.2654215e-06 2 -1 26 
17.482403 0.47216699 0.49984288 -4.5787554e-06 -2.7651093e-05 -1.1422639e-05 0.5 -1.8963028 -0.47440337 1.4219648 4.8762318e-05 -2.3681438e-05 -7.7262444e-05 1 10 1 0.00016921748 -0.00013078079 0 -1 0 26 
13.377464 6.7024213 3.0180579 -1.7488326e-05 -2.0649887e-05 -4.8351505e-05 0.5 -1.7371024 -0.016487012 0.72774229 7.9463563e-06 -2.4226697e-05 -6.7633579e-05 1 10 0 
8.3412167 5.0191816 8.345074 -0.00011634682 3.5626141e-05 -0.00023684567 0.5 -1.3540657 0.33466375 0.17190066 -1.0004834e-05 -0.00030370844 -0.00017961031 1 10 0 
4.9070899 8.9997016 0.49995993 5.6008928e-06 -4.684548e-05 -1.1736658e-05 0.5 0.11360063 1.0393266 2.0389553 5.3768896e-05 -2.1193619e-05 3.6495157e-05 1 10 1 1.1742879e-05 1.2571068e-05 0 -1 0 26 
1.7705996 9.7062241 4.8972362 3.007215e-05 -2.9611314e-05 -6.0531845e-05 0.5 -1.9743298 -1.6814168 -1.3145736 -0.00021358346 -0.00010900414 -9.7018072e-05 1 10 0 
10.157549 4.8117019 6.2949195 -3.9351834e-05 -6.8166644e-05 -8.6966362e-05 0.5 0.67660697 -1.3052224 0.47014796 -4.3975628e-05 -8.3310182e-05 3.6319591e-05 1 10 0 
0.45126643 5.1713678 2.0334729 2.290136e-07 -5.3870971e-06 -2.3604436e-05 0.5 0.90997964 0.83383405 0.031758828 9.6809213e-05 -2.0883479e-05 0.00016436663 1 10 0 
12.89548 3.8846961 4.0548962 -3.3847429e-05 -4.902973e-05 -6.264848e-05 0.5 0.32506766 0.0067827142 0.70629135 1.5597827e-05 3.5541134e-05 0.00010029449 1 10 0 
7.3618973 1.7964838 8.9178493 -3.4933603e-05 -1.3716772e-05 -0.00011399151 0.5 1.1100743 -0.22709167 -0.00070266001 -2.1512179e-05 3.0327551e-05 -2.2367116e-05 1 10 0 
14.698207 3.8140117 8.1544295 2.0521162e-05 -1.166603e-05 -6.4576535e-05 0.5 0.98373671 0.2869646 1.3890095 0.00044320304 -1.082405e-05 -0.00047378297 1 10 0 
19.633694 1.0670081 7.9876798 -6.0267901e-07 1.3310225e-05 -2.2367037e-05 0.5 1.4836358 -1.2656881 -0.77731232 -4.3852792e-06 -1.0829043e-05 -3.3970129e-05 1 10 0 
19.88041 6.4220235 3.8672785 -4.3757724e-05 7.1899996e-05 -6.9475566e-05 0.5 -1.9232085 0.70732217 -0.60988759 0.00055592174 0.00030043665 -6.2944145e-05 1 10 0 
6.8450648 8.4778524 7.6508199 -4.9951946e-05 -5.4414267e-05 -7.7974889e-05 0.5 -0.64637597 1.1947206 0.43936013 5.4405511e-05 5.6335448e-05 -0.00011490192 1 10 1 2.2637229e-07 8.1571606e-06 -4.3339352e-06 38 -1 5.9126 
2.5257223 0.32709737 6.5096469 1.2477667e-05 -1.7304021e-05 -6.8084004e-05 0.5 -0.76465918 2.090293 0.40574118 -4.8297885e-06 -5.8786314e-06 7.6518098e-05 1 10 0 
4.0110141 0.61112743 5.3797928 -1.9469388e-05 -9.9356089e-07 -0.00010285406 0.5 0.57848624 0.54011074 1.0076878 -2.5069407e-05 -3.0002169e-05 -9.6886152e-05 1 10 0 
12.129489 4.2791473 9.6735041 -1.1274691e-05 -4.3785818e-05 -9.982844e-05 0.5 -0.099249751 -0.67742465 -0.48383419 -3.6345391e-05 9.8363026e-05 0.0001376724 1 10 0 
3.5564888 3.2927718 5.0308002 -5.1870221e-05 -8.4436815e-05 -8.0658429e-05 0.5 -1.0496107 -1.2285935 -0.41005271 -0.00028353816 -0.0001637691 0.00016190383 1 10 2 1.1798803e-06 1.6374775e-06 1.5084762e-06 42 -1 26 1.0634982e-07 1.3360577e-06 6.7703219e-07 16 -1 26 
8.3718182 8.3365283 7.7273826 -5.7551786e-05 -8.6982368e-05 -0.00014082721 0.5 -0.66759797 0.13288732 0.90960458 0.00012426701 -1.2826213e-05 -9.7547305e-05 1 10 0 
16.11898 0.35127199 8.3476331 3.0298174e-05 -2.2197986e-05 -7.0345623e-05 0.5 2.7595136 2.1047907 -0.62965596 2.0271586e-05 -3.1659314e-05 2.8488283e-05 1 10 0 
11.737536 5.926745 1.6390983 -3.5717871e-05 -1.9885766e-05 -5.441138e-05 0.5 -0.14081888 1.1708797 0.19956433 -7.8978581e-05 4.7186864e-05 1.0936088e-05 1 10 0 
8.2105069 3.9899822 2.7610344 -1.3166314e-05 -9.3617142e-05 -6.1141606e-05 0.5 -0.31970811 1.1351535 0.79360551 -0.00011559134 0.00015804498 6.703756e-05 1 10 0 
5.6339105 4.0697418 7.8078582 -1.1678128e-05 -6.3113217e-05 -0.00012260503 0.5 -0.98076368 -0.1802681 0.5354579 -0.00013513669 2.675576e-05 -7.6189742e-05 1 10 0 
12.587686 5.7308688 6.7469708 -1.8024206e-05 8.1931763e-06 -6.3273811e-05 0.5 -0.28026581 0.62027515 -0.31587262 -4.1868777e-06 -3.4335699e-05 3.3044127e-06 1 10 0 
9.2615828 4.8602684 6.736203 -4.5310568e-05 -8.7506867e-05 -0.00010631498 0.5 0.3403283 -0.72226877 -0.25811998 8.3360514e-06 3.0091185e-05 1.6649965e-05 1 10 1 -2.2810939e-05 -3.014122e-05 -4.2997278e-05 53 -1 26 
1.3429627 5.6682705 6.6930114 3.3247866e-05 -3.2130051e-05 -7.3506004e-05 0.5 -0.034427073 0.033576637 -0.0014359871 4.4097313e-05 1.3626391e-06 -3.1108947e-05 1 10 0 
12.868474 9.5980936 9.6353524 3.0852552e-05 -1.9311352e-06 -0.0001087767 0.5 -0.8743442 -0.83244205 2.0414693 -6.5847566e-05 5.897025e-05 7.8684601e-05 1 10 0 
10.86675 0.31270843 2.2176333 -1.8772071e-05 -1.1881414e-05 -2.9816942e-05 0.5 0.2243417 0.64245921 -0.32315964 -4.1450982e-05 -4.0032609e-05 -0.00011619716 1 10 0 
19.031005 2.9686645 0.49992934 -3.4305852e-05 -3.1496826e-05 -1.1623725e-05 0.5 -0.087418127 2.7942465 0.090551243 4.8460271e-05 -6.4399862e-05 -9.9995728e-05 1 10 1 3.0064062e-05 -6.7688516e-05 0 -1 0 26 
12.218782 3.9696628 6.1351455 3.8385977e-05 -4.2437583e-05 -5.6356595e-05 0.5 0.76159811 -0.50339561 1.2597789 6.2963869e-05 0.00023266499 2.4009785e-05 1 10 0 
14.024028 6.4276506 0.49997628 -2.7649586e-05 7.1091064e-06 -8.0340184e-06 0.5 -0.61931766 0.97699266 -0.41119079 -3.2064664e-05 -3.5292912e-05 -4.9213902e-05 1 10 1 2.384178e-05 -2.8872628e-05 0 -1 0 26 
18.135475 7.8256766 3.4246004 9.3387229e-06 -9.921589e-06 -2.736632e-05 0.5 0.21858402 -0.079413904 -0.38911446 7.1179281e-05 -3.8124128e-05 -0.00010176298 1 10 0 
7.6685044 5.896889 2.9702135 -0.0001189981 -0.00011756462 -5.49314e-05 0.5 -0.29970192 2.2708047 0.70158639 0.00012872564 -0.00061367397 0.00017443625 1 10 0 
0.83760169 4.9821422 8.3255366 3.3877084e-06 6.3767416e-05 -1.4772241e-05 0.5 0.94227648 -0.86186307 -0.054553741 -4.2338262e-05 5.0340825e-05 9.2527882e-05 1 10 0 
13.271865 9.6490977 7.2064755 -2.4400291e-05 5.7380088e-05 -8.3380666e-05 0.5 0.45984987 0.35907483 -0.35929172 -0.00069803886 0.00012215467 0.00051252914 1 10 0 
12.963107 4.305816 6.7121858 3.3032894e-05 -1.1307645e-05 -7.9334653e-05 0.5 -0.053824643 0.60962667 0.60565315 0.00023192723 -4.5351748e-05 0.00030377831 1 10 1 1.398907e-06 -2.2049772e-09 -1.8031661e-06 76 -1 26 
17.06748 2.9755042 9.5231137 -2.7760873e-06 -9.7457028e-06 -2.2767e-05 0.5 0.93280971 -0.44931654 0.62019587 0.00017116419 -0.00013093266 6.1493994e-05 1 10 0 
17.306857 9.0603718 7.5518444 4.853006e-05 -1.6197065e-05 -4.3316354e-05 0.5 -0.15023681 -0.44524002 0.5175316 -7.2958113e-05 -2.0380001e-05 7.493128e-05 1 10 1 -6.3386303e-07 8.7598355e-07 -1.3690218e-07 4 -1 26 
16.776357 3.7900766 1.1180362 2.1864098e-05 -2.5871936e-05 1.689856e-07 0.5 1.3317027 -1.7357961 0.19125341 -5.3424871e-05 -6.5314173e-05 -0.00015644963 1 10 0 
10.725433 9.2125272 8.3324645 -3.9794186e-05 -3.2706787e-05 -0.00011076749 0.5 -0.77789656 -0.32059021 -0.52283627 2.2217653e-05 1.9904017e-05 4.7700988e-06 1 10 0 
10.003906 8.085848 5.4566546 -7.5747714e-05 -0.00011297666 -0.00010918954 0.5 -1.6466398 0.29751078 -0.10946366 -4.6746282e-05 2.3020148e-05 0.00011442001 1 10 0 
17.460449 3.7564132 7.8906039 -6.0931257e-05 -2.0380102e-06 -1.3011017e-05 0.5 -1.596136 -0.20623328 -1.4293366 -1.9756162e-05 -0.00013671097 1.948031e-05 1 10 0 
12.11269 6.2471861 3.6352165 -6.1122717e-05 -1.1061144e-05 -5.9856703e-05 0.5 0.078790835 -0.042896799 0.36781222 2.810809e-05 -6.2053217e-05 -0.00016559232 1 10 0 
18.472641 5.5150906 8.5920738 1.842738e-05 2.9393575e-05 -1.3687902e-05 0.5 -0.65789546 0.42007797 -2.2404462 8.6962389e-05 8.0967012e-05 6.6144165e-05 1 10 0 
6.7897563 4.6838434 0.49989664 1.8108423e-05 -4.4338803e-05 -7.9177132e-06 0.5 0.067132355 -0.39035331 0.16711558 5.2912769e-05 4.7249167e-05 8.2324298e-05 1 10 1 1.1690769e-05 5.8533476e-05 0 -1 0 26 
0.4259803 2.3259553 3.101977 2.3516702e-05 2.8958099e-05 -5.0546636e-06 0.5 -0.3404507 -0.76806884 0.81891669 0.00027967935 -0.00029934225 -0.00017212223 1 10 1 -4.7090767e-06 -6.0040121e-06 3.7013636e-06 28 -1 26 
18.502417 9.4662852 1.8224155 -1.1799926e-05 -4.0073408e-05 -5.5308943e-05 0.5 0.23869734 0.97258573 -0.074486473 -2.099105e-06 0.00015306132 -0.00014493831 1 10 0 
14.874214 6.9041527 4.719337 -6.7139017e-05 4.47479e-05 -6.6488488e-05 0.5 0.25835963 -0.84697603 -0.54586194 -0.00013445997 -4.5723274e-06 0.00020620895 1 10 0 
17.462007 0.41486474 3.9174017 4.9360388e-05 2.8373746e-05 -3.24721e-05 0.5 -0.52358062 0.71983095 0.16161299 -0.00011911659 0.00020833281 0.0001175595 1 10 0 
13.154707 3.9726512 1.3648457 7.173297e-06 -1.0533845e-05 7.9307457e-06 0.5 1.3711937 -1.5129476 -1.1709979 5.4506664e-05 -2.5579359e-05 2.1755822e-06 1 10 0 
3.6889366 0.60964118 3.9325058 -2.0352401e-05 -5.0245319e-05 -5.0813831e-05 0.5 1.4536784 1.0906783 0.0035491071 -3.3812196e-05 -0.00013353898 -0.00011495359 1 10 0 
1.1388479 5.8775002 9.8380263 2.9773634e-05 5.3665962e-05 6.1603012e-06 0.5 1.3650236 -1.3902937 0.60505781 -8.0979779e-05 0.00018655119 6.919537e-06 1 10 1 5.9020085e-06 1.4646123e-05 4.0502589e-06 40 -1 26 
7.4625707 4.2086009 4.7253945 -3.6697211e-05 -8.5049286e-05 -6.0409106e-05 0.5 -0.09447625 0.85997169 -0.027898282 -5.8374888e-05 8.1470228e-05 9.9539966e-05 1 10 0 
3.0367951 8.347066 4.2031775 5.1740789e-06 -5.2550022e-05 -6.4889582e-05 0.5 0.29460263 1.5734555 1.0094702 -6.1891551e-05 -3.6788552e-05 -4.8683558e-05 1 10 0 
17.743545 1.2497548 8.9895999 1.1064765e-05 -1.5024561e-05 -3.7705536e-05 0.5 0.29846383 0.0040919591 0.079111545 7.3829042e-05 2.8564672e-05 -5.4814926e-05 1 10 0 
18.315008 9.9184166 0.49966363 1.8341559e-05 1.8611922e-05 -6.8404383e-06 0.5 0.23831125 2.5705319 -1.8790398 -5.0621021e-05 1.4604793e-05 0.00017363355 1 10 2 0.00046461471 -5.7719651e-05 0 -1 0 26 1.8772777e-05 2.819387e-05 0.00010015231 48 -1 26 
6.7329271 8.2143438 9.3912531 -2.1180366e-05 1.2842069e-05 -0.00012094968 0.5 0.054892077 -0.80147288 1.2290215 -1.4464827e-05 -1.8484016e-05 -5.7463229e-05 1 10 0 
5.6250297 7.5339509 8.8730707 -0.00010639193 -1.6335241e-05 -0.00011753379 0.5 -0.0065378547 1.1271732 -0.42929692 -4.6081246e-05 -0.00012081385 0.0001504887 1 10 0 
7.6301554 7.7783078 9.4607396 -6.9203821e-05 -8.5353051e-05 -0.00012556315 0.5 0.96045594 -0.2147666 0.23902113 6.0958171e-05 -2.8940509e-05 -0.00018772042 1 10 1 -2.4530522e-06 -5.2630988e-06 -1.3520994e-06 103 -1 26 
14.121862 8.6601101 7.4944709 3.3385393e-05 -1.9705477e-05 -0.00011567894 0.5 -0.81936944 0.69789151 -0.089714616 1.1846802e-05 5.939816e-06 6.1094128e-05 1 10 1 5.0184583e-05 3.3925936e-06 -6.684424e-05 81 -1 4.2766 
2.0053226 8.6656182 5.6333291 4.1273245e-05 -9.715678e-05 3.0898457e-05 0.5 1.4506664 0.37522549 -1.389087 -5.0581826e-05 0.00028462125 0.00026132298 1 10 0 
10.660834 5.8904093 6.7011852 -4.01545e-05 -5.6763247e-05 -7.7007787e-05 0.5 0.81461401 0.53167072 0.7051041 -7.1227206e-05 -0.00010107577 0.00013791456 1 10 0 
8.3960999 4.8526803 6.2353479 -5.4599644e-05 -9.204526e-05 -9.519496e-05 0.5 0.81098034 -0.84446052 -1.0848121 4.7167988e-05 8.8167105e-07 3.076402e-05 1 10 2 6.662089e-05 4.4906051e-05 -3.03573e-05 9 -1 26 -1.2725645e-06 -6.5356043e-06 2.298021e-06 71 -1 26 
8.0885183 6.0261055 4.5865233 -5.3813456e-05 -0.00021009226 -4.8431732e-05 0.5 0.89306758 1.7608651 -0.15154178 0.00020701269 0.00016079029 0.00021145687 1 10 1 8.3127633e-07 -3.0651775e-07 -1.4010568e-06 10 -1 26 
15.513404 5.9284969 0.49968264 2.7536811e-06 -2.3873391e-05 2.7966619e-06 0.5 0.32228134 2.4253198 -0.35751249 3.2961757e-05 -6.9317653e-06 4.0360452e-05 1 10 1 0.00040117086 5.9533037e-05 0 -1 0 26 
6.8671551 6.1591346 7.4205955 -0.00012558698 -0.00010204357 -9.7707854e-05 0.5 0.32769991 0.92448375 -1.4286974 -0.00016350571 -0.0001241542 -8.8359607e-05 1 10 0 
3.8236957 8.9587499 4.997371 8.3333605e-06 -4.4994255e-05 -7.6001267e-05 0.5 -0.40708013 -1.1702354 0.88596039 -0.00014937015 -7.4230923e-05 0.00012853681 1 10 1 -2.576205e-05 0.00010649094 -6.3831531e-05 100 -1 4.0884 
0.79947836 5.1151005 1.097866 2.2528105e-05 7.2215854e-06 -8.8234627e-06 0.5 -2.0583562 -2.0719934 -0.45247965 -9.5091479e-05 -1.7619804e-05 -1.0098369e-05 1 10 1 -2.3129278e-06 2.420061e-05 -2.3162433e-06 54 -1 26 
11.539953 9.734497 8.6890779 -1.3225965e-05 -1.2843973e-05 -9.7311983e-05 0.5 1.6867953 0.23200748 0.21854251 9.2732928e-05 -9.9946092e-05 -1.1029892e-05 1 10 0 
6.3763255 9.2868393 7.2963146 -2.3127384e-05 -3.9981406e-05 -7.9684444e-05 0.5 1.443074 -1.2173691 -0.63408938 -0.0001110697 4.109901e-05 -8.0138473e-06 1 10 2 1.5138546e-05 -1.1571261e-05 -4.6422518e-05 60 -1 26 4.6443612e-06 6.2368884e-06 -2.5013335e-07 0 -1 26 
17.17988 3.9433354 3.4354625 5.3569535e-05 -4.4116179e-05 -1.3665716e-05 0.5 -0.8207434 0.87570025 0.30779032 -3.4453382e-05 -4.5533709e-05 8.2776889e-05 1 10 1 -1.9639441e-07 8.5185036e-08 2.6960878e-07 3 -1 7.2144 
11.390746 6.0660662 7.3617686 -4.3108942e-05 -1.1633967e-05 -8.2739667e-05 0.5 -0.12977288 1.4639264 -0.52444359 -7.9680058e-06 0.0001143078 -0.00011525737 1 10 1 1.2343454e-07 -1.9274045e-07 -8.5137095e-08 108 -1 26 
3.6313037 8.2622167 3.4037223 -1.5611487e-05 -7.104619e-05 -6.9851209e-05 0.5 -1.07342 0.0043228424 0.39232619 7.1917721e-05 9.4376494e-05 1.5135768e-05 1 10 1 -5.0321581e-06 -5.5179308e-05 2.1142729e-06 100 -1 26 
11.662822 0.39167863 1.5235587 5.6003071e-05 1.3856324e-05 3.518459e-06 0.5 0.40627114 -1.0569247 1.3247755 -7.8394991e-05 3.7458042e-05 3.9804094e-05 1 10 0 
4.9058303 8.6698992 1.9702453 1.6326715e-05 -5.3838275e-05 -7.7229081e-06 0.5 -0.76774122 -0.19831813 1.1716362 6.5521578e-05 -5.4695654e-05 3.2309996e-05 1 10 1 4.4022353e-05 9.0484165e-06 -4.1154057e-05 47 -1 2.5388 
14.684212 8.4275519 6.0507216 1.6424107e-05 2.6615475e-05 -6.081949e-05 0.5 0.87354131 -0.94986996 0.69160771 -0.00020434707 -3.6009903e-05 0.00010292906 1 10 0 
16.328069 3.1653768 5.3947167 2.5999518e-05 6.6585783e-06 0.00012145029 0.5 0.18603884 0.44504824 0.43380739 -1.9441822e-05 0.0002866216 -1.426246e-05 1 10 0 
14.277525 4.6917169 5.2109171 7.674275e-05 1.9700119e-05 -2.9219581e-05 0.5 -1.4170701 0.77469142 -0.43878794 1.9657129e-05 -4.119679e-05 7.0011237e-05 1 10 0 
10.049302 2.1078865 8.1536703 2.0952521e-06 -7.3749393e-05 -0.00016564377 0.5 -1.0197216 -0.32063378 -0.64082595 3.9249154e-05 4.3357871e-05 1.6205309e-05 1 10 0 
15.755356 5.7986783 3.8493607 2.1478235e-05 -2.4513589e-05 -1.8781763e-05 0.5 -0.69620288 -0.56841191 -0.25082322 -1.0762225e-05 -2.7092506e-05 -6.2196919e-06 1 10 0 
10.83249 5.5794917 2.2820149 3.6089081e-05 -5.8234328e-05 -1.537047e-05 0.5 0.39563918 0.59230158 -0.8779816 6.0113954e-05 9.935144e-05 -0.00017982113 1 10 0 
16.500988 1.1866725 1.9738423 -2.6424208e-06 -4.3892604e-05 -3.0049964e-05 0.5 -0.17342804 -2.1329527 0.78604053 -5.5044496e-05 4.7528709e-05 -0.00010077747 1 10 0 
19.926763 4.1943258 8.0955755 -1.6492037e-05 4.3115156e-05 -1.6681914e-05 0.5 0.53468279 0.95478716 -0.53135712 -3.1748689e-05 -1.766017e-05 1.6566536e-05 1 10 0 
0.0087390867 9.433243 5.1077065 3.7707616e-05 -2.0608832e-05 -9.0582349e-06 0.5 -0.69859365 -1.1292129 0.89973854 -0.00026675932 2.6041038e-05 0.00040934231 1 10 0 
4.3678521 5.5258472 3.680694 -2.0250957e-05 -5.1392246e-05 -6.5753383e-05 0.5 -1.2352424 0.70079196 0.45979675 -5.0260249e-05 7.179919e-05 0.00011130087 1 10 0 
16.918048 2.3163348 5.3910286 2.381082e-05 2.773461e-05 -7.2008739e-06 0.5 -0.30645061 -0.99779683 -0.38459264 5.5255044e-05 0.00011255881 -0.00013096277 1 10 1 -3.3548225e-06 -6.1606951e-06 7.3873667e-06 21 -1 26 
9.3998875 8.1721888 8.6596942 -6.9969874e-05 -2.3258268e-05 -0.00013147558 0.5 -0.49217365 -1.13074 0.324859 -4.8268588e-05 -3.9172093e-05 -1.212948e-05 1 10 0 
19.259155 1.624162 9.5799771 1.2082109e-05 8.2880243e-06 -2.2846666e-05 0.5 -0.19429303 -0.033972271 -0.08268423 2.8464035e-05 2.8888474e-06 -1.1087836e-05 1 10 1 3.8147365e-05 3.8398866e-06 7.0500527e-05 12 -1 26 
15.875222 7.9402925 5.2833912 -1.6800756e-05 3.6015529e-06 -2.5472243e-05 0.5 1.0580707 0.11974162 -1.1136428 8.5368625e-05 1.8796541e-05 -8.8247782e-06 1 10 0 
2.7221689 2.1490665 0.4997659 6.2157818e-05 0.00010008657 7.1450767e-06 0.5 -0.44388458 1.5005413 -0.35047451 -0.00017606674 0.00019633087 -9.8476029e-05 1 10 1 9.5968957e-05 -7.0641019e-05 0 -1 0 26 
7.0237787 8.9472287 0.49994713 4.6247919e-05 -1.6248491e-05 -5.9083894e-06 0.5 -0.18757605 2.652201 -0.6355424 1.7714594e-05 0.00011342437 -6.6364158e-05 1 10 1 5.714035e-06 7.2926936e-06 0 -1 0 26 
10.835921 7.8522576 4.8312684 -5.4841618e-05 -8.7434839e-05 -8.7457475e-05 0.5 -0.80559476 -1.4718676 0.23350187 4.095711e-05 -3.2145975e-05 5.5830775e-05 1 10 0 
7.2289545 3.8516077 2.8925783 1.4335068e-06 -8.6065713e-05 5.7317636e-06 0.5 0.034250352 0.012086545 -0.83571383 -4.3022665e-05 -3.939173e-05 -3.2800691e-05 1 10 1 7.2285699e-07 2.0480392e-05 2.6937684e-05 68 -1 26 
19.232582 2.7175686 1.4466553 2.9877036e-05 -1.5485052e-05 -1.2570127e-05 0.5 1.5949974 1.6393119 -0.32305828 -0.000122306 0.0002166122 2.1824917e-05 1 10 1 5.8423838e-06 2.1285931e-06 -6.7940742e-07 75 -1 26 
10.347912 3.6446177 6.8815969 -5.2750139e-05 -6.6189045e-05 -8.043694e-05 0.5 -0.0077353994 0.37598373 -1.721316 -2.7908339e-05 -0.00013399903 0.00012370556 1 10 0 
16.897145 0.73248722 8.8630223 1.0753427e-05 -5.6266044e-06 -4.4893083e-05 0.5 0.42533557 -0.41415105 0.30386829 1.8225483e-05 -1.3559335e-05 3.7741885e-05 1 10 1 4.168522e-06 -6.7066539e-06 -4.6691091e-07 101 -1 26 
6.7866483 3.2949837 6.0098226 -1.1550566e-05 -2.5703775e-05 -5.5276267e-05 0.5 0.88037535 0.62698831 0.75182363 8.2159269e-05 -6.7818789e-05 0.00019413146 1 10 0 
4.5577745 1.6215101 6.971611 -2.4994954e-05 -3.7717719e-05 -0.0001245061 0.5 -1.5005493 1.1043235 0.15579763 -8.4235932e-06 -5.83558e-05 6.8280631e-05 1 10 0 
3.9520919 7.8606732 4.2615376 -1.0558941e-05 -9.9935969e-05 -8.4152491e-05 0.5 -0.080126971 0.028507506 -0.43742805 -3.8302082e-05 -5.860735e-05 -9.6199362e-05 1 10 1 2.8065065e-06 6.8405696e-06 2.1525523e-06 119 -1 26 
14.05398 7.6223802 5.8127612 -4.1078039e-05 6.0420691e-05 -3.5512407e-05 0.5 -0.76887801 -1.3592199 -0.48328728 -0.00021633314 -8.7740876e-05 -1.5643842e-05 1 10 1 -1.2649589e-06 -4.5839418e-06 9.3535867e-06 122 -1 4.716 
13.865549 0.033792166 5.0487994 -2.5708539e-05 -3.5006374e-05 -8.5935266e-05 0.5 0.29484377 -1.4297379 -0.0053016378 -0.000143129 -6.9191626e-05 3.1182581e-05 1 10 1 -1.6471656e-05 -2.7383428e-05 2.1421453e-05 23 -1 26 
14.716666 4.6722746 2.453918 -2.1424806e-05 -1.6284237e-06 8.1596744e-07 0.5 -1.5460175 0.19690728 0.2502715 -5.9385762e-05 5.6961645e-05 8.9790074e-06 1 10 0 
4.6747113 6.538739 5.5070549 -1.6274958e-05 -2.9647639e-05 -3.1413637e-05 0.5 0.27532037 0.33465152 -0.38668362 -2.0566004e-05 -2.3506859e-05 3.9991977e-06 1 10 1 -1.6652776e-06 1.8819305e-06 -4.0191237e-07 44 -1 26 
9.116738 4.902657 7.7247022 -4.3313066e-05 -5.8418149e-05 -0.00010914279 0.5 -0.29824883 -0.54815883 -0.8297304 -2.5703622e-05 -4.1806073e-05 -2.4228737e-05 1 10 2 -5.6640429e-06 -3.5678582e-05 -3.7905017e-07 50 -1 26 4.5018425e-05 3.3148206e-05 5.1750926e-06 71 -1 26 
10.412487 8.2334227 0.50746013 1.5924238e-06 -4.9140962e-05 5.7665375e-06 0.5 -0.66592774 0.36519444 0.89512532 -3.6001005e-05 -6.6635277e-06 -4.9099987e-05 1 10 1 8.1030466e-07 4.8887221e-07 0 -1 0 8.3728 
3.5673221 5.1627826 0.49990925 -7.6050234e-06 -2.8788661e-05 1.7515996e-06 0.5 -0.7892012 1.4302758 0.9823233 1.6897998e-05 7.7583263e-06 0.00013789 1 10 1 6.7998592e-05 -3.7995515e-05 0 -1 0 26 
11.855333 7.3503829 4.1104393 -5.355362e-05 -5.2311058e-05 -8.559706e-05 0.5 -0.2510224 -1.0868794 0.42349651 0.00011608228 -0.00016521341 -0.00010339201 1 10 0 
5.1724221 7.2662934 1.2901181 2.2307277e-05 -0.00013164399 -8.5701336e-05 0.5 3.524513 -1.8126706 3.230217 0.0003441962 0.00014206867 -5.6299478e-05 1 10 1 -7.0124559e-05 4.866879e-06 -0.00014968914 121 -1 2.7921 
14.756292 3.2684683 8.9904866 -3.0568394e-05 -7.1545174e-05 -0.00010440933 0.5 -0.29900477 0.52596781 -0.1327106 -0.00033654053 0.00010667101 0.00014644333 1 10 1 1.6069188e-06 -5.4058695e-06 -3.6390753e-06 57 -1 26 
14.296458 5.536417 2.8591008 -4.6311888e-05 -2.5135674e-05 -3.5816329e-05 0.5 1.7148435 -0.32600707 0.30135274 2.9354538e-05 2.342767e-05 -9.0959457e-05 1 10 1 8.5289079e-07 7.9815722e-07 -7.3130964e-07 148 -1 4.8237 
19.768385 6.4268025 8.9080878 5.1047247e-07 2.8803698e-05 -1.0504396e-05 0.5 0.28906023 0.025518634 0.33239959 -7.4182448e-05 2.0043802e-05 3.1838489e-05 1 10 1 1.4316892e-06 -3.5347605e-06 -2.1083177e-05 40 -1 26 
9.0269741 8.6476997 3.1482762 -1.520671e-05 -7.4788559e-05 -2.3876312e-05 0.5 -0.080586568 -1.8903759 0.14677495 -0.00010496771 -2.0931609e-05 0.00010354467 1 10 1 5.0811377e-05 1.3261495e-05 -7.3266347e-05 36 -1 26 
4.0800124 4.6712141 1.3727054 1.8118367e-05 -3.7226403e-05 -8.15444e-06 0.5 -1.4518977 -0.68488736 -1.3330926 -3.6671491e-05 9.0790017e-05 0.00011840942 1 10 1 1.0353353e-05 -9.0774212e-06 -8.1072302e-06 152 -1 2.9303 
4.7967461 4.596817 5.5326382 -4.6782116e-05 -5.581929e-05 -8.7365545e-05 0.5 1.0891896 -0.83553626 -0.0093680115 8.0866757e-05 -4.1759664e-05 -0.00011792163 1 10 0 
5.6748881 3.3734934 2.7387086 2.7811863e-05 -4.8060533e-05 -5.4117571e-05 0.5 0.35038406 0.54845267 0.08794357 5.6937935e-05 4.2690946e-05 -0.0001092978 1 10 0 
13.339796 8.1392909 9.3849157 -1.6372383e-05 -2.9854664e-06 -9.5142195e-05 0.5 -0.35619749 -0.50414426 -0.71308001 4.5977016e-05 6.5426448e-05 -7.0750111e-05 1 10 0 