restart_version 2
name H20A26L1M0.5B0.5
xmin 0 xmax 20 ymin 0 ymax 10 zmin 0 zmax 24
dt 0.0001 t 2000.0001 tmax 2000 save_count 500000
dim 3 gravity 0.43837115 0 -0.89879405
options_fstat 0 options_data 0 options_ene 1 options_restart 2
Species 1
k 200000 disp 25 kt 57142.857 dispt 25 mu 0.5 rho 1.9098593 dim_particle 3
Walls 1
numFiniteWalls 0 normal 0 0 -1 position 1.7
WallsPeriodic 2
normal 1 0 0 pos_left 0 pos_right 20 shift 20 0 0
normal 0 1 0 pos_left 0 pos_right 10 shift 0 10 0
Particles 4297
19.009111 4.8417808 -0.24896328 0 0 0 0.5 0 0 0 0 0 0 0 0 0 
13.809875 3.8942946 -0.77727674 0 0 0 0.5 0 0 0 0 0 0 0 0 0 
5.5517794 4.1547456 -0.60352524 0 0 0 0.5 0 0 0 0 0 0 0 0 0 
19.793224 5.1188403 -0.80355794 0 0 0 0.5 0 0 0 0 0 0 0 0 0 
19.562519 3.9031682 -0.23169893 0 0 0 0.5 0 0 0 0 0 0 0 0 0 
5.5608621 8.5263255 -0.21591956 0 0 0 0.5 0 0 0 0 0 0 0 0 0 
16.216912 5.9096365 -0.94775575 0 0 0 0.5 0 0 0 0 0 0 0 0 0 
14.535995 1.3065091 -0.069504715 0 0 0 0.5 0 0 0 0 0 0 0 0 0 
10.180456 7.2100042 -0.13700305 0 0 0 0.5 0 0 0 0 0 0 0 0 0 
3.4213265 6.7272246 -0.9188929 0 0 0 0.5 0 0 0 0 0 0 0 0 0 
3.3419722 2.8388734 -0.0996109 0 0 0 0.5 0 0 0 0 0 0 0 0 0 
15.373979 8.2385974 -0.34907666 0 0 0 0.5 0 0 0 0 0 0 0 0 0 
13.366573 9.7331215 -0.68717884 0 0 0 0.5 0 0 0 0 0 0 0 0 0 
11.207025 8.5918603 -0.76360889 0 0 0 0.5 0 0 0 0 0 0 0 0 0 
8.2165963 0.46823794 -0.13294856 0 0 0 0.5 0 0 0 0 0 0 0 0 0 
6.5299107 8.2835176 -0.19079525 0 0 0 0.5 0 0 0 0 0 0 0 0 0 
0.86458764 9.2433128 -0.59922823 0 0 0 0.5 0 0 0 0 0 0 0 0 0 
10.713295 9.4613958 -0.75805734 0 0 0 0.5 0 0 0 0 0 0 0 0 0 
8.7004028 7.4688873 -0.93043963 0 0 0 0.5 0 0 0 0 0 0 0 0 0 
7.5161234 9.8634998 -0.72147491 0 0 0 0.5 0 0 0 0 0 0 0 0 0 
13.587682 7.9436759 -0.42840972 0 0 0 0.5 0 0 0 0 0 0 0 0 0 
13.050273 2.1455358 -0.97289164 0 0 0 0.5 0 0 0 0 0 0 0 0 0 
8.7042912 8.669545 -0.84591614 0 0 0 0.5 0 0 0 0 0 0 0 0 0 
4.0434174 5.1137429 -1.0795114 0 0 0 0.5 0 0 0 0 0 0 0 0 0 
15.034013 0.85012465 -1.0586053 0 0 0 0.5 0 0 0 0 0 0 0 0 0 
0.86477113 8.0376244 -0.074527267 0 0 0 0.5 0 0 0 0 0 0 0 0 0 
17.180207 6.1067788 -1.1379577 0 0 0 0.5 0 0 0 0 0 0 0 0 0 
14.394899 7.3729518 -0.27871791 0 0 0 0.5 0 0 0 0 0 0 0 0 0 
17.922673 9.0670322 -0.38226483 0 0 0 0.5 0 0 0 0 0 0 0 0 0 
17.203509 1.5843527 -0.027708017 0 0 0 0.5 0 0 0 0 0 0 0 0 0 
12.35488 1.3357783 -0.22259602 0 0 0 0.5 0 0 0 0 0 0 0 0 0 
6.1655943 2.3575759 -0.12202931 0 0 0 0.5 0 0 0 0 0 0 0 0 0 
12.377884 7.4172294 -0.65933582 0 0 0 0.5 0 0 0 0 0 0 0 0 0 
17.962699 6.5334116 -0.68620729 0 0 0 0.5 0 0 0 0 0 0 0 0 0 
9.3432018 3.5294701 -1.1646462 0 0 0 0.5 0 0 0 0 0 0 0 0 0 
8.6906382 5.733786 -0.36031688 0 0 0 0.5 0 0 0 0 0 0 0 0 0 
15.23775 2.0185073 -0.091852866 0 0 0 0.5 0 0 0 0 0 0 0 0 0 
5.3752315 7.0747017 -1.1499832 0 0 0 0.5 0 0 0 0 0 0 0 0 0 
16.006577 0.66205248 -0.92957761 0 0 0 0.5 0 0 0 0 0 0 0 0 0 
18.475197 8.2294174 -0.96486423 0 0 0 0.5 0 0 0 0 0 0 0 0 0 
19.919947 7.4659504 -0.20442716 0 0 0 0.5 0 0 0 0 0 0 0 0 0 
2.342195 1.7441596 -0.71910607 0 0 0 0.5 0 0 0 0 0 0 0 0 0 
19.253163 6.7515727 -0.60950458 0 0 0 0.5 0 0 0 0 0 0 0 0 0 
17.493503 4.2681537 -0.87991606 0 0 0 0.5 0 0 0 0 0 0 0 0 0 
15.8384 3.7774915 -0.65913478 0 0 0 0.5 0 0 0 0 0 0 0 0 0 
2.0273445 5.5240874 -0.52752289 0 0 0 0.5 0 0 0 0 0 0 0 0 0 
10.686115 5.2016106 -0.65733811 0 0 0 0.5 0 0 0 0 0 0 0 0 0 
10.785596 6.7386788 -0.77820048 0 0 0 0.5 0 0 0 0 0 0 0 0 0 
11.849683 9.8831502 -0.95314257 0 0 0 0.5 0 0 0 0 0 0 0 0 0 
15.451556 0.91051781 -0.13621381 0 0 0 0.5 0 0 0 0 0 0 0 0 0 
9.4465386 8.1303989 -0.44788299 0 0 0 0.5 0 0 0 0 0 0 0 0 0 
19.262952 4.3220281 -1.0887397 0 0 0 0.5 0 0 0 0 0 0 0 0 0 
10.726644 4.2531919 -0.96534243 0 0 0 0.5 0 0 0 0 0 0 0 0 0 
11.977115 5.3940067 -0.070761633 0 0 0 0.5 0 0 0 0 0 0 0 0 0 
13.542211 5.6509871 -0.82072957 0 0 0 0.5 0 0 0 0 0 0 0 0 0 
16.657673 3.2474461 -0.4438944 0 0 0 0.5 0 0 0 0 0 0 0 0 0 
15.698811 9.4236005 -1.0615255 0 0 0 0.5 0 0 0 0 0 0 0 0 0 
3.7463121 4.4269857 -0.33212855 0 0 0 0.5 0 0 0 0 0 0 0 0 0 
18.23843 2.6060774 -0.98050539 0 0 0 0.5 0 0 0 0 0 0 0 0 0 
11.307652 1.2270559 -0.55097732 0 0 0 0.5 0 0 0 0 0 0 0 0 0 
2.3773977 3.0964075 -0.14511647 0 0 0 0.5 0 0 0 0 0 0 0 0 0 
14.078287 2.1328165 -0.39593164 0 0 0 0.5 0 0 0 0 0 0 0 0 0 
3.2136923 8.5267475 -1.0285615 0 0 0 0.5 0 0 0 0 0 0 0 0 0 
2.0860745 4.3955698 -0.61222044 0 0 0 0.5 0 0 0 0 0 0 0 0 0 
6.6759583 5.2530526 -1.0472473 0 0 0 0.5 0 0 0 0 0 0 0 0 0 
3.807029 3.4785563 -0.7107748 0 0 0 0.5 0 0 0 0 0 0 0 0 0 
3.9638174 1.7237435 -1.1963257 0 0 0 0.5 0 0 0 0 0 0 0 0 0 
14.685747 2.923417 -0.32909857 0 0 0 0.5 0 0 0 0 0 0 0 0 0 
6.2783478 0.74822589 -0.94968541 0 0 0 0.5 0 0 0 0 0 0 0 0 0 
12.722576 6.2893502 -0.82881499 0 0 0 0.5 0 0 0 0 0 0 0 0 0 
15.858122 4.5839436 -0.068857227 0 0 0 0.5 0 0 0 0 0 0 0 0 0 
16.204105 1.5643737 -0.057756086 0 0 0 0.5 0 0 0 0 0 0 0 0 0 
15.379371 5.5159415 -0.50377614 0 0 0 0.5 0 0 0 0 0 0 0 0 0 
19.885893 2.9869625 -0.4682071 0 0 0 0.5 0 0 0 0 0 0 0 0 0 
2.9199337 5.4148103 -0.089286885 0 0 0 0.5 0 0 0 0 0 0 0 0 0 
7.9995177 2.3729312 -0.80904133 0 0 0 0.5 0 0 0 0 0 0 0 0 0 
16.285707 9.8705079 -0.38684707 0 0 0 0.5 0 0 0 0 0 0 0 0 0 
12.606495 3.10355 -0.94182118 0 0 0 0.5 0 0 0 0 0 0 0 0 0 
2.5427352 8.8098715 -0.33829678 0 0 0 0.5 0 0 0 0 0 0 0 0 0 
6.5418086 6.239308 -0.95520006 0 0 0 0.5 0 0 0 0 0 0 0 0 0 
19.03017 8.0943427 -0.012825477 0 0 0 0.5 0 0 0 0 0 0 0 0 0 
4.8094911 1.6361197 -0.67030192 0 0 0 0.5 0 0 0 0 0 0 0 0 0 
6.3877807 6.5383442 -0.01421026 0 0 0 0.5 0 0 0 0 0 0 0 0 0 
2.9826389 4.7894361 -0.86657134 0 0 0 0.5 0 0 0 0 0 0 0 0 0 
15.674281 2.9138526 -0.18313358 0 0 0 0.5 0 0 0 0 0 0 0 0 0 
8.016558 0.81725012 -1.0481706 0 0 0 0.5 0 0 0 0 0 0 0 0 0 
17.526857 8.5097465 -1.1118304 0 0 0 0.5 0 0 0 0 0 0 0 0 0 
19.479126 8.980321 -1.1126276 0 0 0 0.5 0 0 0 0 0 0 0 0 0 
12.906965 3.4157794 -0.01387747 0 0 0 0.5 0 0 0 0 0 0 0 0 0 
16.644033 1.4305923 -0.9813659 0 0 0 0.5 0 0 0 0 0 0 0 0 0 
15.227851 6.4511085 -0.8248633 0 0 0 0.5 0 0 0 0 0 0 0 0 0 
10.068634 3.7124299 -0.44237591 0 0 0 0.5 0 0 0 0 0 0 0 0 0 
12.111332 1.8167349 -1.0645461 0 0 0 0.5 0 0 0 0 0 0 0 0 0 
12.125374 8.9358606 -1.1466727 0 0 0 0.5 0 0 0 0 0 0 0 0 0 
0.56843207 6.1583162 -0.46847598 0 0 0 0.5 0 0 0 0 0 0 0 0 0 
8.4472159 9.5424026 -0.43162218 0 0 0 0.5 0 0 0 0 0 0 0 0 0 
9.2806436 4.2647729 -0.17270534 0 0 0 0.5 0 0 0 0 0 0 0 0 0 
7.433225 6.5474761 -0.62745654 0 0 0 0.5 0 0 0 0 0 0 0 0 0 
2.7003551 7.4213448 -0.90509146 0 0 0 0.5 0 0 0 0 0 0 0 0 0 
3.877457 7.3991914 -0.3368745 0 0 0 0.5 0 0 0 0 0 0 0 0 0 
16.25361 8.5664806 -1.0036354 0 0 0 0.5 0 0 0 0 0 0 0 0 0 
10.885512 3.2315155 -0.78553355 0 0 0 0.5 0 0 0 0 0 0 0 0 0 
4.8604514 8.9667624 -0.77637125 0 0 0 0.5 0 0 0 0 0 0 0 0 0 
1.2465552 4.8471685 -0.3110723 0 0 0 0.5 0 0 0 0 0 0 0 0 0 
7.4890991 4.1681512 -0.51500002 0 0 0 0.5 0 0 0 0 0 0 0 0 0 
4.9346967 5.5886811 -0.36039019 0 0 0 0.5 0 0 0 0 0 0 0 0 0 
17.294514 2.1738152 -0.82961741 0 0 0 0.5 0 0 0 0 0 0 0 0 0 
7.8531362 1.4925318 -0.31919036 0 0 0 0.5 0 0 0 0 0 0 0 0 0 
1.5627766 0.33919323 -0.027086105 0 0 0 0.5 0 0 0 0 0 0 0 0 0 
13.327844 1.3339096 -0.45229982 0 0 0 0.5 0 0 0 0 0 0 0 0 0 
0.6343571 0.28208565 -0.6140689 0 0 0 0.5 0 0 0 0 0 0 0 0 0 
14.445885 8.1580543 -0.89614085 0 0 0 0.5 0 0 0 0 0 0 0 0 0 
12.491315 9.6940632 -0.20540035 0 0 0 0.5 0 0 0 0 0 0 0 0 0 
12.415041 4.0848002 -0.57083123 0 0 0 0.5 0 0 0 0 0 0 0 0 0 
6.0476218 8.1983363 -1.1307176 0 0 0 0.5 0 0 0 0 0 0 0 0 0 
11.560564 9.3214263 -0.17832873 0 0 0 0.5 0 0 0 0 0 0 0 0 0 
8.2709264 6.9393082 -0.18273948 0 0 0 0.5 0 0 0 0 0 0 0 0 0 
12.953661 8.8070241 -0.20382154 0 0 0 0.5 0 0 0 0 0 0 0 0 0 
4.7717724 4.6182226 -0.18319728 0 0 0 0.5 0 0 0 0 0 0 0 0 0 
0.36285793 2.1698766 -0.14519381 0 0 0 0.5 0 0 0 0 0 0 0 0 0 
12.079914 8.3232819 -0.35630486 0 0 0 0.5 0 0 0 0 0 0 0 0 0 
6.2560987 9.8959989 -0.42838322 0 0 0 0.5 0 0 0 0 0 0 0 0 0 
5.117345 4.9190456 -1.0794489 0 0 0 0.5 0 0 0 0 0 0 0 0 0 
4.1405226 8.2729363 -0.74613048 0 0 0 0.5 0 0 0 0 0 0 0 0 0 
8.8094226 2.9138803 -0.58546474 0 0 0 0.5 0 0 0 0 0 0 0 0 0 
2.2751943 7.8742245 -0.10910272 0 0 0 0.5 0 0 0 0 0 0 0 0 0 
2.597946 0.147621 -0.41623468 0 0 0 0.5 0 0 0 0 0 0 0 0 0 
16.025254 6.5826909 -0.23429334 0 0 0 0.5 0 0 0 0 0 0 0 0 0 
13.921 6.5379633 -0.5574743 0 0 0 0.5 0 0 0 0 0 0 0 0 0 
18.91744 9.0484824 -0.28850422 0 0 0 0.5 0 0 0 0 0 0 0 0 0 
16.929401 8.1309846 -0.40574897 0 0 0 0.5 0 0 0 0 0 0 0 0 0 
17.287152 0.43131726 -1.1706751 0 0 0 0.5 0 0 0 0 0 0 0 0 0 
11.336312 2.2614734 -0.49939533 0 0 0 0.5 0 0 0 0 0 0 0 0 0 
11.617731 3.8277934 -1.11557 0 0 0 0.5 0 0 0 0 0 0 0 0 0 
14.418507 5.7076311 -0.30382398 0 0 0 0.5 0 0 0 0 0 0 0 0 0 
15.164172 0.005445807 -0.44925852 0 0 0 0.5 0 0 0 0 0 0 0 0 0 
3.2989929 1.9133165 -0.47416818 0 0 0 0.5 0 0 0 0 0 0 0 0 0 
14.277931 0.46003025 -0.53404659 0 0 0 0.5 0 0 0 0 0 0 0 0 0 
19.27942 5.8054427 -0.28964289 0 0 0 0.5 0 0 0 0 0 0 0 0 0 
0.84262412 2.8481724 -0.72969108 0 0 0 0.5 0 0 0 0 0 0 0 0 0 
13.645244 8.8050604 -0.93340789 0 0 0 0.5 0 0 0 0 0 0 0 0 0 
4.8662668 7.2695631 -0.27942524 0 0 0 0.5 0 0 0 0 0 0 0 0 0 
18.252317 0.16970319 -1.1461501 0 0 0 0.5 0 0 0 0 0 0 0 0 0 
3.2480064 8.1405895 -0.1070686 0 0 0 0.5 0 0 0 0 0 0 0 0 0 
6.9334793 5.7169189 -0.1991115 0 0 0 0.5 0 0 0 0 0 0 0 0 0 
17.335081 5.2469068 -0.46137838 0 0 0 0.5 0 0 0 0 0 0 0 0 0 
9.7427933 4.4392223 -1.0489089 0 0 0 0.5 0 0 0 0 0 0 0 0 0 
3.4443472 0.0830641 -0.94325748 0 0 0 0.5 0 0 0 0 0 0 0 0 0 
8.8558537 5.0608679 -1.0800503 0 0 0 0.5 0 0 0 0 0 0 0 0 0 
4.3581449 9.3606582 -0.0072419503 0 0 0 0.5 0 0 0 0 0 0 0 0 0 
18.117479 1.8718076 -0.31334073 0 0 0 0.5 0 0 0 0 0 0 0 0 0 
12.827132 8.2362032 -1.0149486 0 0 0 0.5 0 0 0 0 0 0 0 0 0 
17.610715 7.5488467 -0.84947348 0 0 0 0.5 0 0 0 0 0 0 0 0 0 
6.7796359 1.5953694 -0.33215435 0 0 0 0.5 0 0 0 0 0 0 0 0 0 
13.184498 4.6947769 -0.38117149 0 0 0 0.5 0 0 0 0 0 0 0 0 0 
9.2810078 9.0757373 -0.13793328 0 0 0 0.5 0 0 0 0 0 0 0 0 0 
18.926347 3.229394 -0.60901686 0 0 0 0.5 0 0 0 0 0 0 0 0 0 
7.8781477 3.2597185 -0.36328948 0 0 0 0.5 0 0 0 0 0 0 0 0 0 
16.267657 5.4955597 -0.039678228 0 0 0 0.5 0 0 0 0 0 0 0 0 0 
19.695924 6.0416353 -1.1752986 0 0 0 0.5 0 0 0 0 0 0 0 0 0 
2.0811106 3.4924957 -1.1796004 0 0 0 0.5 0 0 0 0 0 0 0 0 0 
0.45915163 7.8590657 -0.97064978 0 0 0 0.5 0 0 0 0 0 0 0 0 0 
1.3440318 1.7106588 -0.66786596 0 0 0 0.5 0 0 0 0 0 0 0 0 0 
1.7063369 7.5136515 -0.84841031 0 0 0 0.5 0 0 0 0 0 0 0 0 0 
7.038762 2.5287422 -0.57891221 0 0 0 0.5 0 0 0 0 0 0 0 0 0 
9.497371 1.1758425 -1.0518835 0 0 0 0.5 0 0 0 0 0 0 0 0 0 
17.528238 9.9830457 -0.30996725 0 0 0 0.5 0 0 0 0 0 0 0 0 0 
12.30525 2.4114986 -0.28402419 0 0 0 0.5 0 0 0 0 0 0 0 0 0 
2.2605901 8.2737039 -1.183421 0 0 0 0.5 0 0 0 0 0 0 0 0 0 
19.07566 0.72125769 -1.019394 0 0 0 0.5 0 0 0 0 0 0 0 0 0 
5.6739735 5.7501732 -1.0830391 0 0 0 0.5 0 0 0 0 0 0 0 0 0 
18.943942 1.3160191 -0.22672956 0 0 0 0.5 0 0 0 0 0 0 0 0 0 
8.6664773 1.7197362 -1.1646146 0 0 0 0.5 0 0 0 0 0 0 0 0 0 
10.486734 1.0801093 -1.1575256 0 0 0 0.5 0 0 0 0 0 0 0 0 0 
4.1341739 6.0500347 -0.74332122 0 0 0 0.5 0 0 0 0 0 0 0 0 0 
8.0379321 4.9766875 -0.30191055 0 0 0 0.5 0 0 0 0 0 0 0 0 0 
12.925419 5.7088482 -0.036078303 0 0 0 0.5 0 0 0 0 0 0 0 0 0 
11.8479 0.4773031 -0.14924897 0 0 0 0.5 0 0 0 0 0 0 0 0 0 
1.5735762 8.741936 -0.10467021 0 0 0 0.5 0 0 0 0 0 0 0 0 0 
7.748735 8.9164064 -0.99511962 0 0 0 0.5 0 0 0 0 0 0 0 0 0 
10.873215 0.35311098 -0.33543571 0 0 0 0.5 0 0 0 0 0 0 0 0 0 
8.3394361 6.4011831 -1.0221561 0 0 0 0.5 0 0 0 0 0 0 0 0 0 
1.4062252 6.131712 -1.0395699 0 0 0 0.5 0 0 0 0 0 0 0 0 0 
3.958402 5.3597255 -0.041282368 0 0 0 0.5 0 0 0 0 0 0 0 0 0 
19.392966 9.8667961 -0.60930126 0 0 0 0.5 0 0 0 0 0 0 0 0 0 
7.7097786 7.4935787 -0.79672245 0 0 0 0.5 0 0 0 0 0 0 0 0 0 
16.834173 0.70330748 -0.32212776 0 0 0 0.5 0 0 0 0 0 0 0 0 0 
4.1792906 2.3876319 -0.47448372 0 0 0 0.5 0 0 0 0 0 0 0 0 0 
5.7737697 3.132453 -0.61911983 0 0 0 0.5 0 0 0 0 0 0 0 0 0 
1.2598145 4.1394057 -1.1130933 0 0 0 0.5 0 0 0 0 0 0 0 0 0 
14.135291 9.5845665 -0.065830801 0 0 0 0.5 0 0 0 0 0 0 0 0 0 
1.2872433 8.4193596 -1.0079498 0 0 0 0.5 0 0 0 0 0 0 0 0 0 
5.8163897 5.0852707 -0.35097137 0 0 0 0.5 0 0 0 0 0 0 0 0 0 
10.066018 0.20782103 -0.91029153 0 0 0 0.5 0 0 0 0 0 0 0 0 0 
7.2353001 0.70796927 -0.26583382 0 0 0 0.5 0 0 0 0 0 0 0 0 0 
17.946824 0.91675358 -0.5555375 0 0 0 0.5 0 0 0 0 0 0 0 0 0 
18.518722 0.10548389 -0.18461275 0 0 0 0.5 0 0 0 0 0 0 0 0 0 
17.392493 3.1279607 -1.1110233 0 0 0 0.5 0 0 0 0 0 0 0 0 0 
12.563831 5.3033912 -0.87559375 0 0 0 0.5 0 0 0 0 0 0 0 0 0 
3.0301454 0.98830741 -0.74094925 0 0 0 0.5 0 0 0 0 0 0 0 0 0 
14.789656 9.0848375 -0.63307291 0 0 0 0.5 0 0 0 0 0 0 0 0 0 
0.76591659 5.3533583 -1.0268598 0 0 0 0.5 0 0 0 0 0 0 0 0 0 
9.3937127 2.0603226 -0.5689336 0 0 0 0.5 0 0 0 0 0 0 0 0 0 
16.465276 4.9422347 -0.84868413 0 0 0 0.5 0 0 0 0 0 0 0 0 0 
3.2049107 5.7541726 -1.0165892 0 0 0 0.5 0 0 0 0 0 0 0 0 0 
10.965378 3.893968 -0.039018533 0 0 0 0.5 0 0 0 0 0 0 0 0 0 
11.666086 6.9629197 -1.1930219 0 0 0 0.5 0 0 0 0 0 0 0 0 0 
0.16217955 6.9048891 -0.99581323 0 0 0 0.5 0 0 0 0 0 0 0 0 0 
7.0438615 8.1992023 -1.044164 0 0 0 0.5 0 0 0 0 0 0 0 0 0 
10.22837 8.768928 -0.22497042 0 0 0 0.5 0 0 0 0 0 0 0 0 0 
2.5235672 6.3840667 -0.64383278 0 0 0 0.5 0 0 0 0 0 0 0 0 0 
17.948715 3.2709741 -0.29235671 0 0 0 0.5 0 0 0 0 0 0 0 0 0 
18.320792 5.5542837 -0.41667255 0 0 0 0.5 0 0 0 0 0 0 0 0 0 
16.318669 2.3361522 -0.68313016 0 0 0 0.5 0 0 0 0 0 0 0 0 0 
5.8269404 9.1562384 -0.94701943 0 0 0 0.5 0 0 0 0 0 0 0 0 0 
5.2784129 9.7364165 -0.29297998 0 0 0 0.5 0 0 0 0 0 0 0 0 0 
2.7050339 9.4301296 -1.1047836 0 0 0 0.5 0 0 0 0 0 0 0 0 0 
15.511659 4.6563616 -1.0040712 0 0 0 0.5 0 0 0 0 0 0 0 0 0 
13.248043 7.3385539 -1.1474735 0 0 0 0.5 0 0 0 0 0 0 0 0 0 
19.36412 2.1439434 -0.59764931 0 0 0 0.5 0 0 0 0 0 0 0 0 0 
6.7482243 3.4535243 -0.33759622 0 0 0 0.5 0 0 0 0 0 0 0 0 0 
4.3838663 6.9504711 -1.094259 0 0 0 0.5 0 0 0 0 0 0 0 0 0 
8.4605474 4.0067042 -0.68255122 0 0 0 0.5 0 0 0 0 0 0 0 0 0 
0.93076264 7.0880598 -0.38378408 0 0 0 0.5 0 0 0 0 0 0 0 0 0 
10.440604 7.9496268 -0.75697933 0 0 0 0.5 0 0 0 0 0 0 0 0 0 
13.540837 2.9432128 -0.62547644 0 0 0 0.5 0 0 0 0 0 0 0 0 0 
4.4306496 4.1937646 -1.0212237 0 0 0 0.5 0 0 0 0 0 0 0 0 0 
5.4653239 6.4358523 -0.38625242 0 0 0 0.5 0 0 0 0 0 0 0 0 0 
9.690216 7.3341231 -1.0002723 0 0 0 0.5 0 0 0 0 0 0 0 0 0 
5.812852 7.5665159 -0.39362428 0 0 0 0.5 0 0 0 0 0 0 0 0 0 
0.10451742 8.6179187 -0.42204849 0 0 0 0.5 0 0 0 0 0 0 0 0 0 
5.5944429 2.1988375 -0.92728717 0 0 0 0.5 0 0 0 0 0 0 0 0 0 
11.837768 3.2951193 -0.29868729 0 0 0 0.5 0 0 0 0 0 0 0 0 0 
2.9234914 3.8731159 -0.45856675 0 0 0 0.5 0 0 0 0 0 0 0 0 0 
16.104458 7.6345956 -0.67342419 0 0 0 0.5 0 0 0 0 0 0 0 0 0 
2.8106655 2.6562659 -0.9316452 0 0 0 0.5 0 0 0 0 0 0 0 0 0 
9.1199055 0.35958886 -0.61551899 0 0 0 0.5 0 0 0 0 0 0 0 0 0 
5.7994732 1.3997075 -0.36158056 0 0 0 0.5 0 0 0 0 0 0 0 0 0 
10.071134 0.96251063 -0.2550641 0 0 0 0.5 0 0 0 0 0 0 0 0 0 
19.77684 0.74200996 -0.30601069 0 0 0 0.5 0 0 0 0 0 0 0 0 0 
14.165331 1.3402031 -0.99790401 0 0 0 0.5 0 0 0 0 0 0 0 0 0 
1.8070193 2.5893485 -0.79039818 0 0 0 0.5 0 0 0 0 0 0 0 0 0 
1.667264 6.4145293 -0.11714092 0 0 0 0.5 0 0 0 0 0 0 0 0 0 
0.32089931 4.271173 -0.79581161 0 0 0 0.5 0 0 0 0 0 0 0 0 0 
7.6143991 5.5888244 -0.96911458 0 0 0 0.5 0 0 0 0 0 0 0 0 0 
5.105805 2.5567007 -0.13212177 0 0 0 0.5 0 0 0 0 0 0 0 0 0 
16.825686 6.9435971 -0.72005987 0 0 0 0.5 0 0 0 0 0 0 0 0 0 
18.501394 9.2019981 -1.1951819 0 0 0 0.5 0 0 0 0 0 0 0 0 0 
0.15661435 9.6300393 -0.0090132672 0 0 0 0.5 0 0 0 0 0 0 0 0 0 
1.7970379 9.6005612 -0.65794258 0 0 0 0.5 0 0 0 0 0 0 0 0 0 
15.15484 7.4498569 -0.92301676 0 0 0 0.5 0 0 0 0 0 0 0 0 0 
5.0872521 8.0042546 -0.92427146 0 0 0 0.5 0 0 0 0 0 0 0 0 0 
10.029751 9.7300495 -0.032750693 0 0 0 0.5 0 0 0 0 0 0 0 0 0 
4.5002078 9.95578 -0.88127416 0 0 0 0.5 0 0 0 0 0 0 0 0 0 
15.633092 9.170716 -0.096482398 0 0 0 0.5 0 0 0 0 0 0 0 0 0 
13.094183 6.9327498 -0.15762933 0 0 0 0.5 0 0 0 0 0 0 0 0 0 
11.33655 7.5936095 -0.49098156 0 0 0 0.5 0 0 0 0 0 0 0 0 0 
8.8249086 1.258198 -0.29165699 0 0 0 0.5 0 0 0 0 0 0 0 0 0 
0.54589657 3.6227789 -0.06862893 0 0 0 0.5 0 0 0 0 0 0 0 0 0 
18.530708 1.5478274 -1.1646706 0 0 0 0.5 0 0 0 0 0 0 0 0 0 
14.924125 3.9545618 -0.29560731 0 0 0 0.5 0 0 0 0 0 0 0 0 0 
8.4615171 8.0164423 -0.12897922 0 0 0 0.5 0 0 0 0 0 0 0 0 0 
16.952689 9.1588918 -0.60545627 0 0 0 0.5 0 0 0 0 0 0 0 0 0 
14.184071 4.7397171 -0.39659702 0 0 0 0.5 0 0 0 0 0 0 0 0 0 
6.517793 4.4025096 -0.54960416 0 0 0 0.5 0 0 0 0 0 0 0 0 0 
18.483001 7.3538512 -0.40243172 0 0 0 0.5 0 0 0 0 0 0 0 0 0 
10.121178 6.0214348 -0.57315551 0 0 0 0.5 0 0 0 0 0 0 0 0 0 
6.7851115 7.3461154 -0.44894394 0 0 0 0.5 0 0 0 0 0 0 0 0 0 
3.4574059 6.2560466 -0.037426403 0 0 0 0.5 0 0 0 0 0 0 0 0 0 
12.743312 0.52200261 -0.70797936 0 0 0 0.5 0 0 0 0 0 0 0 0 0 
7.3845213 1.5752532 -1.1980784 0 0 0 0.5 0 0 0 0 0 0 0 0 0 
9.5500273 5.206742 -0.37220347 0 0 0 0.5 0 0 0 0 0 0 0 0 0 
9.259225 9.4738246 -1.0573646 0 0 0 0.5 0 0 0 0 0 0 0 0 0 
4.1386055 0.8708894 -0.70379195 0 0 0 0.5 0 0 0 0 0 0 0 0 0 
11.470166 6.0192048 -0.66367077 0 0 0 0.5 0 0 0 0 0 0 0 0 0 
11.536141 4.5912983 -0.47192676 0 0 0 0.5 0 0 0 0 0 0 0 0 0 
1.9592696 0.81195279 -0.81414268 0 0 0 0.5 0 0 0 0 0 0 0 0 0 
9.9822382 2.8121173 -0.86619136 0 0 0 0.5 0 0 0 0 0 0 0 0 0 
10.403064 1.9331225 -0.64340374 0 0 0 0.5 0 0 0 0 0 0 0 0 0 
14.870177 2.2061334 -1.0022641 0 0 0 0.5 0 0 0 0 0 0 0 0 0 
15.664 1.6086803 -0.89802714 0 0 0 0.5 0 0 0 0 0 0 0 0 0 
1.5062852 3.5411477 -0.35196296 0 0 0 0.5 0 0 0 0 0 0 0 0 0 
5.110032 0.68772283 -0.55147198 0 0 0 0.5 0 0 0 0 0 0 0 0 0 
6.8037688 9.1216611 -0.74176189 0 0 0 0.5 0 0 0 0 0 0 0 0 0 
0.40602202 1.3778394 -0.75348021 0 0 0 0.5 0 0 0 0 0 0 0 0 0 
3.4344672 9.2598245 -0.37631743 0 0 0 0.5 0 0 0 0 0 0 0 0 0 
19.458073 8.0010551 -0.91160224 0 0 0 0.5 0 0 0 0 0 0 0 0 0 
16.776673 4.206989 -0.18577169 0 0 0 0.5 0 0 0 0 0 0 0 0 0 
9.2536151 6.5121729 -0.63667318 0 0 0 0.5 0 0 0 0 0 0 0 0 0 
18.430869 4.0971512 -0.5822226 0 0 0 0.5 0 0 0 0 0 0 0 0 0 
17.909879 8.1138038 -0.080108903 0 0 0 0.5 0 0 0 0 0 0 0 0 0 
15.306545 3.0912459 -1.1598374 0 0 0 0.5 0 0 0 0 0 0 0 0 0 
10.546115 2.6954085 -0.012695634 0 0 0 0.5 0 0 0 0 0 0 0 0 0 
17.020294 6.1441482 -0.15184553 0 0 0 0.5 0 0 0 0 0 0 0 0 0 
7.3075666 3.4315435 -1.1656661 0 0 0 0.5 0 0 0 0 0 0 0 0 0 
4.7948421 3.3179784 -0.70085971 0 0 0 0.5 0 0 0 0 0 0 0 0 0 
12.076644 6.6176439 -0.14008962 0 0 0 0.5 0 0 0 0 0 0 0 0 0 
13.712071 1.2671586 8.1437062 4.7618048 0.065506466 -0.0043942071 0.5 -45.115112 507.85002 16.218817 -1.3449161 0.68983465 0.2577977 1 10 1 -3.3231331e-06 2.6743423e-05 -2.3721591e-05 88 -1 1455.1503 
13.412288 8.749221 15.695201 8.1818502 -0.010744558 0.26560155 0.5 6.1340566 364.40119 -3.7274923 0.19611666 0.4040581 -0.10430881 1 10 0 
9.9598745 9.6910033 1.5929447 0.60292883 -0.20045864 0.13666377 0.5 18.115646 573.61788 7.9065365 -0.75539956 0.67876367 1.1384161 1 10 1 5.149993e-05 3.5071696e-05 1.8161117e-07 149 -1 1968.3089 
3.7626785 7.9160592 12.732177 7.5843029 0.070422228 0.32172732 0.5 27.627771 349.00755 38.53794 -0.88251053 0.81825576 0.58647024 1 10 1 -7.934826e-05 -1.9193794e-05 -3.4174914e-05 298 -1 1659.3448 
5.5925479 8.5733951 8.6512691 4.4140301 0.04918674 0.2967638 0.5 16.140026 354.72913 39.795595 0.45570327 0.41572646 -0.19105794 1 10 1 5.7978033e-06 -5.7445606e-06 -2.929043e-06 297 -1 287.7988 
5.517498 6.9489065 2.9372066 1.6159363 -0.2155387 0.41172979 0.5 -14.128326 522.54905 -3.0239804 0.65119751 0.99231192 1.8506201 1 10 1 5.7948659e-05 1.7659199e-05 8.1674703e-06 299 -1 1902.1814 
9.4959769 4.760497 17.744788 8.63828 0.09593608 0.23001694 0.5 -20.933046 328.45646 -58.228926 0.11112671 -0.49113504 0.38453557 1 10 1 -4.4740033e-05 -3.5825969e-05 1.1966895e-05 298 -1 1219.1536 
11.894877 5.6591812 18.661617 8.9332387 0.047661607 0.16792035 0.5 4.6755077 450.1999 10.864844 -0.15058261 0.24407689 -0.045793856 1 10 1 -1.2501982e-05 8.0381811e-05 4.1281e-05 303 -1 1496.6248 
12.717562 0.8486443 0.57123468 0.29226313 -0.0430021 -0.14561491 0.5 -25.521371 502.75997 38.316504 0.35428368 0.91739382 -0.15184777 1 10 1 0.00014305281 -0.0004719088 -0.00035494406 30 -1 2000.0001 
5.6809736 6.6503311 10.917099 5.9173541 -0.35104465 -0.59581613 0.5 -14.442144 553.44101 -8.4670234 -0.87956352 1.3793222 1.800227 1 10 1 4.3864913e-07 9.8680348e-06 -2.1173199e-05 305 -1 1637.211 
8.3844014 2.9976006 10.822847 6.0761204 -0.070518141 -0.083905394 0.5 -50.236547 565.22562 61.813232 0.23167813 -1.1696698 0.80944354 1 10 1 1.6809643e-05 1.6928115e-05 1.464928e-05 301 -1 1696.1764 
16.052242 4.9651791 4.2547037 2.8125282 0.73917638 0.99391 0.5 -4.7309837 544.19741 85.799989 1.6095763 -0.24724181 -1.3852817 1 10 1 -5.1438293e-06 -5.8360777e-06 3.6299818e-06 134 -1 1962.6727 
16.830366 9.4625208 1.3412852 0.086124426 0.32873334 -0.094973359 0.5 -11.779805 503.25996 -8.0865926 0.99795934 -0.47017672 0.057860197 1 10 1 -4.7491886e-05 8.7495789e-06 2.1417651e-05 15 -1 1961.32 
2.4108432 1.0835231 0.048230313 0.010331605 0.00040279616 0.12046976 0.5 -31.21602 508.94113 -18.37909 -0.050509938 0.18263199 0.073273264 1 10 1 -1.7624395e-06 1.2424293e-06 -1.5513214e-06 199 -1 1999.9356 
5.0928491 9.7663685 1.9230841 0.31248436 -0.24957555 0.070506991 0.5 36.803999 441.28128 -4.0009843 1.1120049 1.3523485 -0.86516354 1 10 1 1.4761324e-05 -7.9165697e-06 -2.7047659e-06 215 -1 1935.2942 
4.4279085 6.3110112 3.6413278 2.709825 0.37471786 -0.99026188 0.5 -34.096771 539.63018 -10.788281 -1.6404811 1.9858921 -0.16008618 1 10 1 4.2242908e-06 4.2843518e-06 -8.467216e-06 301 -1 1959.6571 
17.162607 6.9656206 8.035585 4.4772695 -0.0040701309 0.19734829 0.5 8.9417866 527.99265 56.151552 -0.37061574 -0.28204222 -0.46787377 1 10 1 -7.8037905e-06 1.1855498e-05 6.6438093e-06 312 -1 1931.6961 
13.718659 8.4577241 2.748606 0.80205892 0.22075543 -0.15286905 0.5 -36.421762 586.86484 -69.031268 -0.5077487 0.12423264 0.79874863 1 10 1 -1.0708562e-05 8.0339616e-06 5.3004937e-06 309 -1 1968.8035 
4.6770104 5.7062785 5.7133841 3.4511084 -0.16985233 0.42101499 0.5 12.632076 471.6128 9.2906448 -0.98430388 -1.6216236 -0.62003609 1 10 1 4.8367024e-06 -2.2897291e-06 -2.6591071e-06 307 -1 1762.8586 
18.85444 8.93804 3.8291836 2.2316747 0.39302172 0.066840641 0.5 -2.2347048 580.79534 -8.9192389 0.91021186 0.47499038 -1.2754664 1 10 1 -2.3407068e-05 2.1918003e-05 1.3664969e-05 314 -1 1978.8316 
13.090495 6.5402222 7.5863542 4.3622074 0.39013754 -0.2826333 0.5 12.870793 545.22312 -49.038329 0.14953173 0.47841571 1.2166999 1 10 1 1.9069768e-06 -6.6412504e-06 3.9164413e-06 315 -1 1984.7826 
12.138009 4.2164304 1.909094 0.74420202 0.30236083 -0.064507334 0.5 0.42570699 513.51251 -42.517574 1.2779274 0.92362383 1.3733064 1 10 1 -2.2488869e-05 -1.6566505e-06 1.4676101e-05 88 -1 1898.5622 
1.5602946 2.1933874 6.1616634 4.1113119 0.27983388 -0.25167542 0.5 -16.098465 554.91377 -20.709914 0.18171958 0.33200683 -0.21244525 1 10 1 2.9002863e-06 -3.5002815e-06 -3.3899548e-06 308 -1 1632.4198 
1.473122 7.2801735 5.3361027 3.4570209 0.15466248 -0.44612326 0.5 1.3299673 517.41691 -32.119271 0.12930604 -0.72161842 0.073898223 1 10 1 -0.0001249494 -3.0238085e-05 4.8569175e-05 305 -1 1890.8838 
8.3273779 4.513185 10.057236 4.637981 -0.059245705 -0.18833067 0.5 16.307133 519.64886 33.913408 -0.14687539 1.0552201 -0.76841132 1 10 1 7.614841e-06 -2.4930697e-05 -2.0997108e-06 307 -1 1889.6569 
3.9044742 5.0642929 6.0806945 2.7840902 0.48128809 -0.05105078 0.5 23.004824 446.98319 -30.752054 0.10980585 2.542461 -1.6438229 1 10 1 3.144532e-05 8.6300187e-06 8.4793048e-05 315 -1 1999.6613 
7.9158812 2.0350062 3.8172507 2.283002 -0.13101486 -0.85974139 0.5 -1.9117905 444.80689 -24.151791 2.1238002 -1.536884 -0.30570413 1 10 1 -5.7452999e-05 1.2609526e-05 6.097528e-05 311 -1 1979.5116 
15.516189 8.6079784 7.4848132 4.4013103 0.14144176 -0.12384994 0.5 -11.803468 447.51012 37.652734 0.67048755 -0.87227547 -0.56356943 1 10 1 -3.2011664e-05 -3.3555256e-05 -4.1544135e-05 301 -1 1825.7474 
2.0376728 2.450699 9.7836863 5.2108418 -0.17491872 -0.28869479 0.5 24.450547 477.17678 15.53115 -0.75967016 0.17375872 0.34386583 1 10 1 -3.2431011e-05 -1.6004241e-06 2.7199761e-07 317 -1 1927.4761 
14.266057 9.0602077 4.7073646 2.8676648 0.048175871 0.20829244 0.5 16.69082 498.17932 -9.3033482 -0.14071863 1.3169496 -1.1444311 1 10 1 -9.4632955e-06 -1.1562284e-05 1.673522e-05 302 -1 1913.8333 
13.50667 6.3334854 17.353365 8.4358295 -0.022924366 -0.34735364 0.5 23.479703 434.93723 -0.52763347 -0.5315421 -0.97426862 0.26030136 1 10 1 -4.1698761e-05 1.5426515e-05 7.6329699e-06 304 -1 1616.9201 
0.96677724 5.0814929 8.9315883 5.0802616 -0.2507396 0.1024612 0.5 -30.00231 513.55762 16.254491 0.15926089 0.091809963 -0.64207565 1 10 1 -7.3006349e-05 -1.4309774e-05 -5.1957252e-06 301 -1 1908.9302 
10.273898 0.5263167 2.0894688 0.58950873 -0.13166045 -0.1224093 0.5 -20.641939 440.7857 -9.4670924 0.33355371 0.10861966 -0.097969973 1 10 1 -0.0001073353 6.4664691e-05 -4.9500125e-05 299 -1 1999.8734 
4.8808552 7.5375407 5.7075622 3.1312786 -0.06949209 0.14961725 0.5 14.183362 553.78251 18.850194 0.75983878 -1.4370695 0.26956977 1 10 1 1.6611612e-06 -1.2495755e-05 -5.2000658e-06 326 -1 1985.3936 
0.87822579 0.97237168 10.655944 5.6871324 -0.23489419 -0.23763101 0.5 11.859981 522.55685 3.6641141 -0.31863805 1.029607 -0.99714434 1 10 1 -2.6602698e-06 -2.7025553e-06 1.6225291e-06 321 -1 1883.6943 
18.492536 7.8501682 3.9129476 2.5050969 -0.56924934 -0.60655335 0.5 19.087646 470.56948 30.550666 -0.10714865 -2.0026118 1.2602631 1 10 1 2.8881089e-05 -2.3695135e-05 7.4464253e-07 316 -1 1999.5085 
7.4902749 3.4541285 16.246319 8.1137986 -0.014294444 -0.254562 0.5 -5.4296872 403.36433 27.030996 0.066316698 0.38461526 -0.052703532 1 10 1 -1.5874405e-06 1.8765947e-06 2.153386e-05 303 -1 1532.7845 
6.5933178 7.7022018 5.4907343 4.2618595 0.21072888 0.68852726 0.5 42.152496 435.49962 -3.776394 0.3730941 -0.84415912 0.81743331 1 10 1 4.8657324e-06 4.3976634e-06 1.0418001e-06 320 -1 1985.1139 
14.112442 9.5801811 2.5045858 1.4643147 0.62173205 -0.14080817 0.5 19.813224 551.66465 4.6587819 -0.2878316 -0.77981149 -0.98109011 1 10 1 1.4742378e-07 2.5751587e-08 2.5254801e-07 314 -1 1999.6084 
5.77384 6.3758959 5.9309472 2.3031052 0.23347982 0.1505067 0.5 26.217674 555.93704 12.866804 0.65710735 3.3984742 1.3761074 1 10 1 -1.1603691e-05 1.5833003e-05 -1.7723683e-05 324 -1 1984.7625 
11.260043 9.9930044 11.565829 5.9595751 -0.026039832 0.17629012 0.5 26.318057 513.83446 0.72689523 0.90492648 0.69183222 0.064451193 1 10 1 -1.8534226e-05 7.5981402e-06 9.635444e-07 300 -1 1977.1234 
12.061314 2.08682 9.3828288 5.4808125 -0.011367002 0.27831099 0.5 7.8156022 451.25742 14.798583 -0.83205816 -0.017562047 0.21551961 1 10 1 -1.2075049e-05 -9.0096895e-06 -1.4471449e-05 331 -1 1963.208 
12.500482 7.8716344 18.137149 8.8436798 -0.28121918 -0.20308112 0.5 29.771459 384.5529 -26.810014 0.014694173 -0.68440732 -0.31409541 1 10 1 1.2410082e-05 1.2266041e-05 1.7923786e-07 327 -1 1972.6967 
14.804845 4.292979 5.0955844 3.3308451 -0.29931103 -0.30843472 0.5 -11.389828 544.26165 18.302577 -0.7937242 -0.63857666 0.42192659 1 10 1 1.3734731e-06 -2.5438159e-05 1.1008633e-05 317 -1 1932.5883 
8.7506637 3.7305326 8.3389766 4.3069252 0.02174849 0.41280485 0.5 17.442585 397.15489 -17.993534 0.21521789 -0.43085719 -0.99915028 1 10 1 -9.2596421e-06 -5.4555108e-05 9.9126513e-06 325 -1 1935.7084 
14.453679 1.178925 9.0620276 5.4509699 -0.18583381 0.045553257 0.5 2.747597 536.51429 -9.3933843 -0.1364703 0.80805196 0.30447299 1 10 1 -9.4039178e-06 -3.6263196e-05 3.4347771e-06 297 -1 1999.3898 
4.0453106 2.1827248 17.607081 8.2514323 0.31021716 0.026439929 0.5 20.579332 370.93406 37.091687 0.916841 0.23347559 -0.74384967 1 10 1 -1.995661e-05 2.0872128e-05 1.6581997e-05 333 -1 1956.506 
19.967622 2.1707107 16.520187 7.8835976 0.17091981 0.17798534 0.5 6.1606735 518.95873 54.294631 -0.6320484 -0.24272089 0.35568685 1 10 1 9.59154e-06 3.282104e-06 -1.3289042e-05 343 -1 1984.3526 
5.7589797 8.501733 3.5344767 1.7638765 -0.27552899 0.40599638 0.5 -31.516404 507.03209 -33.467864 -0.69111627 0.69060872 0.34600756 1 10 1 -6.2101944e-06 -1.6454341e-05 1.1616698e-05 302 -1 1955.0031 
4.5462034 7.1606396 3.1257269 1.6436853 0.31348896 -1.2551677 0.5 9.4182236 585.13641 40.378114 1.3760799 -1.0017069 1.2818656 1 10 1 -1.2320714e-05 -1.5681524e-05 -3.0612371e-05 312 -1 1999.9626 
17.631381 6.7211355 1.0251722 0.37214841 0.073581065 0.14991581 0.5 2.5073063 571.31147 18.710885 -0.24220522 -0.15508155 0.44212976 1 10 1 4.1451437e-06 7.9148693e-06 -3.2940497e-06 293 -1 1998.3267 
2.1880965 7.7702005 11.444043 6.4357059 0.12766117 -0.19398772 0.5 -25.552609 391.84732 -58.22601 0.12233684 -0.28967818 -0.10553775 1 10 1 1.955935e-05 -1.7861111e-06 -3.6622216e-06 303 -1 1748.2188 
15.11117 6.0833877 6.8630692 3.8623091 0.028759367 -0.17841292 0.5 0.98200861 502.31501 5.4828303 -0.64593128 -0.34356628 1.0560266 1 10 1 7.6909859e-06 -1.8114498e-06 -1.5298321e-06 336 -1 1969.8317 
2.6961973 9.4076367 3.122207 1.7440191 -0.23017637 -0.17262215 0.5 -18.05328 506.10379 -18.041786 2.0761301 -0.69011087 -1.5272496 1 10 1 -2.2797024e-05 -2.4067361e-06 9.6353525e-06 330 -1 1976.9753 
2.0357378 1.989656 14.171686 7.3159457 0.10341685 0.055452315 0.5 20.926134 383.99324 -27.089594 0.011588256 1.5735038 1.6279942 1 10 1 -1.5753562e-05 -1.4203018e-05 2.6577233e-05 300 -1 1883.1601 
7.1493796 5.1894814 7.4397522 4.3375554 -0.16923532 0.038879601 0.5 -5.8928797 404.27205 23.724434 0.48952687 1.8788677 0.76279934 1 10 1 -1.9592373e-05 -1.4744108e-05 1.8783717e-05 315 -1 1997.3016 
16.608322 2.8125751 3.0580035 2.006242 0.27406077 0.16843832 0.5 -5.5769286 523.15 -11.317 -1.6147027 0.98080794 -1.3051625 1 10 1 -1.3857276e-05 -1.4834928e-05 8.9991811e-05 329 -1 1984.8209 