restart_version 2
name H30A26L1M0.5B0.5
xmin 0 xmax 20 ymin 0 ymax 10 zmin 0 zmax 36
dt 0.0001 t 2000.0001 tmax 2000 save_count 500000
dim 3 gravity 0.43837115 0 -0.89879405
options_fstat 0 options_data 0 options_ene 1 options_restart 2
Species 1
k 200000 disp 25 kt 57142.857 dispt 25 mu 0.5 rho 1.9098593 dim_particle 3
Walls 1
numFiniteWalls 0 normal 0 0 -1 position 1.7
WallsPeriodic 2
normal 1 0 0 pos_left 0 pos_right 20 shift 20 0 0
normal 0 1 0 pos_left 0 pos_right 10 shift 0 10 0
Particles 6297
19.009111 4.8417808 -0.24896328 0 0 0 0.5 0 0 0 0 0 0 0 0 0 
13.809875 3.8942946 -0.77727674 0 0 0 0.5 0 0 0 0 0 0 0 0 0 
5.5517794 4.1547456 -0.60352524 0 0 0 0.5 0 0 0 0 0 0 0 0 0 
19.793224 5.1188403 -0.80355794 0 0 0 0.5 0 0 0 0 0 0 0 0 0 
19.562519 3.9031682 -0.23169893 0 0 0 0.5 0 0 0 0 0 0 0 0 0 
5.5608621 8.5263255 -0.21591956 0 0 0 0.5 0 0 0 0 0 0 0 0 0 
16.216912 5.9096365 -0.94775575 0 0 0 0.5 0 0 0 0 0 0 0 0 0 
14.535995 1.3065091 -0.069504715 0 0 0 0.5 0 0 0 0 0 0 0 0 0 
10.180456 7.2100042 -0.13700305 0 0 0 0.5 0 0 0 0 0 0 0 0 0 
3.4213265 6.7272246 -0.9188929 0 0 0 0.5 0 0 0 0 0 0 0 0 0 
3.3419722 2.8388734 -0.0996109 0 0 0 0.5 0 0 0 0 0 0 0 0 0 
15.373979 8.2385974 -0.34907666 0 0 0 0.5 0 0 0 0 0 0 0 0 0 
13.366573 9.7331215 -0.68717884 0 0 0 0.5 0 0 0 0 0 0 0 0 0 
11.207025 8.5918603 -0.76360889 0 0 0 0.5 0 0 0 0 0 0 0 0 0 
8.2165963 0.46823794 -0.13294856 0 0 0 0.5 0 0 0 0 0 0 0 0 0 
6.5299107 8.2835176 -0.19079525 0 0 0 0.5 0 0 0 0 0 0 0 0 0 
0.86458764 9.2433128 -0.59922823 0 0 0 0.5 0 0 0 0 0 0 0 0 0 
10.713295 9.4613958 -0.75805734 0 0 0 0.5 0 0 0 0 0 0 0 0 0 
8.7004028 7.4688873 -0.93043963 0 0 0 0.5 0 0 0 0 0 0 0 0 0 
7.5161234 9.8634998 -0.72147491 0 0 0 0.5 0 0 0 0 0 0 0 0 0 
13.587682 7.9436759 -0.42840972 0 0 0 0.5 0 0 0 0 0 0 0 0 0 
13.050273 2.1455358 -0.97289164 0 0 0 0.5 0 0 0 0 0 0 0 0 0 
8.7042912 8.669545 -0.84591614 0 0 0 0.5 0 0 0 0 0 0 0 0 0 
4.0434174 5.1137429 -1.0795114 0 0 0 0.5 0 0 0 0 0 0 0 0 0 
15.034013 0.85012465 -1.0586053 0 0 0 0.5 0 0 0 0 0 0 0 0 0 
0.86477113 8.0376244 -0.074527267 0 0 0 0.5 0 0 0 0 0 0 0 0 0 
17.180207 6.1067788 -1.1379577 0 0 0 0.5 0 0 0 0 0 0 0 0 0 
14.394899 7.3729518 -0.27871791 0 0 0 0.5 0 0 0 0 0 0 0 0 0 
17.922673 9.0670322 -0.38226483 0 0 0 0.5 0 0 0 0 0 0 0 0 0 
17.203509 1.5843527 -0.027708017 0 0 0 0.5 0 0 0 0 0 0 0 0 0 
12.35488 1.3357783 -0.22259602 0 0 0 0.5 0 0 0 0 0 0 0 0 0 
6.1655943 2.3575759 -0.12202931 0 0 0 0.5 0 0 0 0 0 0 0 0 0 
12.377884 7.4172294 -0.65933582 0 0 0 0.5 0 0 0 0 0 0 0 0 0 
17.962699 6.5334116 -0.68620729 0 0 0 0.5 0 0 0 0 0 0 0 0 0 
9.3432018 3.5294701 -1.1646462 0 0 0 0.5 0 0 0 0 0 0 0 0 0 
8.6906382 5.733786 -0.36031688 0 0 0 0.5 0 0 0 0 0 0 0 0 0 
15.23775 2.0185073 -0.091852866 0 0 0 0.5 0 0 0 0 0 0 0 0 0 
5.3752315 7.0747017 -1.1499832 0 0 0 0.5 0 0 0 0 0 0 0 0 0 
16.006577 0.66205248 -0.92957761 0 0 0 0.5 0 0 0 0 0 0 0 0 0 
18.475197 8.2294174 -0.96486423 0 0 0 0.5 0 0 0 0 0 0 0 0 0 
19.919947 7.4659504 -0.20442716 0 0 0 0.5 0 0 0 0 0 0 0 0 0 
2.342195 1.7441596 -0.71910607 0 0 0 0.5 0 0 0 0 0 0 0 0 0 
19.253163 6.7515727 -0.60950458 0 0 0 0.5 0 0 0 0 0 0 0 0 0 
17.493503 4.2681537 -0.87991606 0 0 0 0.5 0 0 0 0 0 0 0 0 0 
15.8384 3.7774915 -0.65913478 0 0 0 0.5 0 0 0 0 0 0 0 0 0 
2.0273445 5.5240874 -0.52752289 0 0 0 0.5 0 0 0 0 0 0 0 0 0 
10.686115 5.2016106 -0.65733811 0 0 0 0.5 0 0 0 0 0 0 0 0 0 
10.785596 6.7386788 -0.77820048 0 0 0 0.5 0 0 0 0 0 0 0 0 0 
11.849683 9.8831502 -0.95314257 0 0 0 0.5 0 0 0 0 0 0 0 0 0 
15.451556 0.91051781 -0.13621381 0 0 0 0.5 0 0 0 0 0 0 0 0 0 
9.4465386 8.1303989 -0.44788299 0 0 0 0.5 0 0 0 0 0 0 0 0 0 
19.262952 4.3220281 -1.0887397 0 0 0 0.5 0 0 0 0 0 0 0 0 0 
10.726644 4.2531919 -0.96534243 0 0 0 0.5 0 0 0 0 0 0 0 0 0 
11.977115 5.3940067 -0.070761633 0 0 0 0.5 0 0 0 0 0 0 0 0 0 
13.542211 5.6509871 -0.82072957 0 0 0 0.5 0 0 0 0 0 0 0 0 0 
16.657673 3.2474461 -0.4438944 0 0 0 0.5 0 0 0 0 0 0 0 0 0 
15.698811 9.4236005 -1.0615255 0 0 0 0.5 0 0 0 0 0 0 0 0 0 
3.7463121 4.4269857 -0.33212855 0 0 0 0.5 0 0 0 0 0 0 0 0 0 
18.23843 2.6060774 -0.98050539 0 0 0 0.5 0 0 0 0 0 0 0 0 0 
11.307652 1.2270559 -0.55097732 0 0 0 0.5 0 0 0 0 0 0 0 0 0 
2.3773977 3.0964075 -0.14511647 0 0 0 0.5 0 0 0 0 0 0 0 0 0 
14.078287 2.1328165 -0.39593164 0 0 0 0.5 0 0 0 0 0 0 0 0 0 
3.2136923 8.5267475 -1.0285615 0 0 0 0.5 0 0 0 0 0 0 0 0 0 
2.0860745 4.3955698 -0.61222044 0 0 0 0.5 0 0 0 0 0 0 0 0 0 
6.6759583 5.2530526 -1.0472473 0 0 0 0.5 0 0 0 0 0 0 0 0 0 
3.807029 3.4785563 -0.7107748 0 0 0 0.5 0 0 0 0 0 0 0 0 0 
3.9638174 1.7237435 -1.1963257 0 0 0 0.5 0 0 0 0 0 0 0 0 0 
14.685747 2.923417 -0.32909857 0 0 0 0.5 0 0 0 0 0 0 0 0 0 
6.2783478 0.74822589 -0.94968541 0 0 0 0.5 0 0 0 0 0 0 0 0 0 
12.722576 6.2893502 -0.82881499 0 0 0 0.5 0 0 0 0 0 0 0 0 0 
15.858122 4.5839436 -0.068857227 0 0 0 0.5 0 0 0 0 0 0 0 0 0 
16.204105 1.5643737 -0.057756086 0 0 0 0.5 0 0 0 0 0 0 0 0 0 
15.379371 5.5159415 -0.50377614 0 0 0 0.5 0 0 0 0 0 0 0 0 0 
19.885893 2.9869625 -0.4682071 0 0 0 0.5 0 0 0 0 0 0 0 0 0 
2.9199337 5.4148103 -0.089286885 0 0 0 0.5 0 0 0 0 0 0 0 0 0 
7.9995177 2.3729312 -0.80904133 0 0 0 0.5 0 0 0 0 0 0 0 0 0 
16.285707 9.8705079 -0.38684707 0 0 0 0.5 0 0 0 0 0 0 0 0 0 
12.606495 3.10355 -0.94182118 0 0 0 0.5 0 0 0 0 0 0 0 0 0 
2.5427352 8.8098715 -0.33829678 0 0 0 0.5 0 0 0 0 0 0 0 0 0 
6.5418086 6.239308 -0.95520006 0 0 0 0.5 0 0 0 0 0 0 0 0 0 
19.03017 8.0943427 -0.012825477 0 0 0 0.5 0 0 0 0 0 0 0 0 0 
4.8094911 1.6361197 -0.67030192 0 0 0 0.5 0 0 0 0 0 0 0 0 0 
6.3877807 6.5383442 -0.01421026 0 0 0 0.5 0 0 0 0 0 0 0 0 0 
2.9826389 4.7894361 -0.86657134 0 0 0 0.5 0 0 0 0 0 0 0 0 0 
15.674281 2.9138526 -0.18313358 0 0 0 0.5 0 0 0 0 0 0 0 0 0 
8.016558 0.81725012 -1.0481706 0 0 0 0.5 0 0 0 0 0 0 0 0 0 
17.526857 8.5097465 -1.1118304 0 0 0 0.5 0 0 0 0 0 0 0 0 0 
19.479126 8.980321 -1.1126276 0 0 0 0.5 0 0 0 0 0 0 0 0 0 
12.906965 3.4157794 -0.01387747 0 0 0 0.5 0 0 0 0 0 0 0 0 0 
16.644033 1.4305923 -0.9813659 0 0 0 0.5 0 0 0 0 0 0 0 0 0 
15.227851 6.4511085 -0.8248633 0 0 0 0.5 0 0 0 0 0 0 0 0 0 
10.068634 3.7124299 -0.44237591 0 0 0 0.5 0 0 0 0 0 0 0 0 0 
12.111332 1.8167349 -1.0645461 0 0 0 0.5 0 0 0 0 0 0 0 0 0 
12.125374 8.9358606 -1.1466727 0 0 0 0.5 0 0 0 0 0 0 0 0 0 
0.56843207 6.1583162 -0.46847598 0 0 0 0.5 0 0 0 0 0 0 0 0 0 
8.4472159 9.5424026 -0.43162218 0 0 0 0.5 0 0 0 0 0 0 0 0 0 
9.2806436 4.2647729 -0.17270534 0 0 0 0.5 0 0 0 0 0 0 0 0 0 
7.433225 6.5474761 -0.62745654 0 0 0 0.5 0 0 0 0 0 0 0 0 0 
2.7003551 7.4213448 -0.90509146 0 0 0 0.5 0 0 0 0 0 0 0 0 0 
3.877457 7.3991914 -0.3368745 0 0 0 0.5 0 0 0 0 0 0 0 0 0 
16.25361 8.5664806 -1.0036354 0 0 0 0.5 0 0 0 0 0 0 0 0 0 
10.885512 3.2315155 -0.78553355 0 0 0 0.5 0 0 0 0 0 0 0 0 0 
4.8604514 8.9667624 -0.77637125 0 0 0 0.5 0 0 0 0 0 0 0 0 0 
1.2465552 4.8471685 -0.3110723 0 0 0 0.5 0 0 0 0 0 0 0 0 0 
7.4890991 4.1681512 -0.51500002 0 0 0 0.5 0 0 0 0 0 0 0 0 0 
4.9346967 5.5886811 -0.36039019 0 0 0 0.5 0 0 0 0 0 0 0 0 0 
17.294514 2.1738152 -0.82961741 0 0 0 0.5 0 0 0 0 0 0 0 0 0 
7.8531362 1.4925318 -0.31919036 0 0 0 0.5 0 0 0 0 0 0 0 0 0 
1.5627766 0.33919323 -0.027086105 0 0 0 0.5 0 0 0 0 0 0 0 0 0 
13.327844 1.3339096 -0.45229982 0 0 0 0.5 0 0 0 0 0 0 0 0 0 
0.6343571 0.28208565 -0.6140689 0 0 0 0.5 0 0 0 0 0 0 0 0 0 
14.445885 8.1580543 -0.89614085 0 0 0 0.5 0 0 0 0 0 0 0 0 0 
12.491315 9.6940632 -0.20540035 0 0 0 0.5 0 0 0 0 0 0 0 0 0 
12.415041 4.0848002 -0.57083123 0 0 0 0.5 0 0 0 0 0 0 0 0 0 
6.0476218 8.1983363 -1.1307176 0 0 0 0.5 0 0 0 0 0 0 0 0 0 
11.560564 9.3214263 -0.17832873 0 0 0 0.5 0 0 0 0 0 0 0 0 0 
8.2709264 6.9393082 -0.18273948 0 0 0 0.5 0 0 0 0 0 0 0 0 0 
12.953661 8.8070241 -0.20382154 0 0 0 0.5 0 0 0 0 0 0 0 0 0 
4.7717724 4.6182226 -0.18319728 0 0 0 0.5 0 0 0 0 0 0 0 0 0 
0.36285793 2.1698766 -0.14519381 0 0 0 0.5 0 0 0 0 0 0 0 0 0 
12.079914 8.3232819 -0.35630486 0 0 0 0.5 0 0 0 0 0 0 0 0 0 
6.2560987 9.8959989 -0.42838322 0 0 0 0.5 0 0 0 0 0 0 0 0 0 
5.117345 4.9190456 -1.0794489 0 0 0 0.5 0 0 0 0 0 0 0 0 0 
4.1405226 8.2729363 -0.74613048 0 0 0 0.5 0 0 0 0 0 0 0 0 0 
8.8094226 2.9138803 -0.58546474 0 0 0 0.5 0 0 0 0 0 0 0 0 0 
2.2751943 7.8742245 -0.10910272 0 0 0 0.5 0 0 0 0 0 0 0 0 0 
2.597946 0.147621 -0.41623468 0 0 0 0.5 0 0 0 0 0 0 0 0 0 
16.025254 6.5826909 -0.23429334 0 0 0 0.5 0 0 0 0 0 0 0 0 0 
13.921 6.5379633 -0.5574743 0 0 0 0.5 0 0 0 0 0 0 0 0 0 
18.91744 9.0484824 -0.28850422 0 0 0 0.5 0 0 0 0 0 0 0 0 0 
16.929401 8.1309846 -0.40574897 0 0 0 0.5 0 0 0 0 0 0 0 0 0 
17.287152 0.43131726 -1.1706751 0 0 0 0.5 0 0 0 0 0 0 0 0 0 
11.336312 2.2614734 -0.49939533 0 0 0 0.5 0 0 0 0 0 0 0 0 0 
11.617731 3.8277934 -1.11557 0 0 0 0.5 0 0 0 0 0 0 0 0 0 
14.418507 5.7076311 -0.30382398 0 0 0 0.5 0 0 0 0 0 0 0 0 0 
15.164172 0.005445807 -0.44925852 0 0 0 0.5 0 0 0 0 0 0 0 0 0 
3.2989929 1.9133165 -0.47416818 0 0 0 0.5 0 0 0 0 0 0 0 0 0 
14.277931 0.46003025 -0.53404659 0 0 0 0.5 0 0 0 0 0 0 0 0 0 
19.27942 5.8054427 -0.28964289 0 0 0 0.5 0 0 0 0 0 0 0 0 0 
0.84262412 2.8481724 -0.72969108 0 0 0 0.5 0 0 0 0 0 0 0 0 0 
13.645244 8.8050604 -0.93340789 0 0 0 0.5 0 0 0 0 0 0 0 0 0 
4.8662668 7.2695631 -0.27942524 0 0 0 0.5 0 0 0 0 0 0 0 0 0 
18.252317 0.16970319 -1.1461501 0 0 0 0.5 0 0 0 0 0 0 0 0 0 
3.2480064 8.1405895 -0.1070686 0 0 0 0.5 0 0 0 0 0 0 0 0 0 
6.9334793 5.7169189 -0.1991115 0 0 0 0.5 0 0 0 0 0 0 0 0 0 
17.335081 5.2469068 -0.46137838 0 0 0 0.5 0 0 0 0 0 0 0 0 0 
9.7427933 4.4392223 -1.0489089 0 0 0 0.5 0 0 0 0 0 0 0 0 0 
3.4443472 0.0830641 -0.94325748 0 0 0 0.5 0 0 0 0 0 0 0 0 0 
8.8558537 5.0608679 -1.0800503 0 0 0 0.5 0 0 0 0 0 0 0 0 0 
4.3581449 9.3606582 -0.0072419503 0 0 0 0.5 0 0 0 0 0 0 0 0 0 
18.117479 1.8718076 -0.31334073 0 0 0 0.5 0 0 0 0 0 0 0 0 0 
12.827132 8.2362032 -1.0149486 0 0 0 0.5 0 0 0 0 0 0 0 0 0 
17.610715 7.5488467 -0.84947348 0 0 0 0.5 0 0 0 0 0 0 0 0 0 
6.7796359 1.5953694 -0.33215435 0 0 0 0.5 0 0 0 0 0 0 0 0 0 
13.184498 4.6947769 -0.38117149 0 0 0 0.5 0 0 0 0 0 0 0 0 0 
9.2810078 9.0757373 -0.13793328 0 0 0 0.5 0 0 0 0 0 0 0 0 0 
18.926347 3.229394 -0.60901686 0 0 0 0.5 0 0 0 0 0 0 0 0 0 
7.8781477 3.2597185 -0.36328948 0 0 0 0.5 0 0 0 0 0 0 0 0 0 
16.267657 5.4955597 -0.039678228 0 0 0 0.5 0 0 0 0 0 0 0 0 0 
19.695924 6.0416353 -1.1752986 0 0 0 0.5 0 0 0 0 0 0 0 0 0 
2.0811106 3.4924957 -1.1796004 0 0 0 0.5 0 0 0 0 0 0 0 0 0 
0.45915163 7.8590657 -0.97064978 0 0 0 0.5 0 0 0 0 0 0 0 0 0 
1.3440318 1.7106588 -0.66786596 0 0 0 0.5 0 0 0 0 0 0 0 0 0 
1.7063369 7.5136515 -0.84841031 0 0 0 0.5 0 0 0 0 0 0 0 0 0 
7.038762 2.5287422 -0.57891221 0 0 0 0.5 0 0 0 0 0 0 0 0 0 
9.497371 1.1758425 -1.0518835 0 0 0 0.5 0 0 0 0 0 0 0 0 0 
17.528238 9.9830457 -0.30996725 0 0 0 0.5 0 0 0 0 0 0 0 0 0 
12.30525 2.4114986 -0.28402419 0 0 0 0.5 0 0 0 0 0 0 0 0 0 
2.2605901 8.2737039 -1.183421 0 0 0 0.5 0 0 0 0 0 0 0 0 0 
19.07566 0.72125769 -1.019394 0 0 0 0.5 0 0 0 0 0 0 0 0 0 
5.6739735 5.7501732 -1.0830391 0 0 0 0.5 0 0 0 0 0 0 0 0 0 
18.943942 1.3160191 -0.22672956 0 0 0 0.5 0 0 0 0 0 0 0 0 0 
8.6664773 1.7197362 -1.1646146 0 0 0 0.5 0 0 0 0 0 0 0 0 0 
10.486734 1.0801093 -1.1575256 0 0 0 0.5 0 0 0 0 0 0 0 0 0 
4.1341739 6.0500347 -0.74332122 0 0 0 0.5 0 0 0 0 0 0 0 0 0 
8.0379321 4.9766875 -0.30191055 0 0 0 0.5 0 0 0 0 0 0 0 0 0 
12.925419 5.7088482 -0.036078303 0 0 0 0.5 0 0 0 0 0 0 0 0 0 
11.8479 0.4773031 -0.14924897 0 0 0 0.5 0 0 0 0 0 0 0 0 0 
1.5735762 8.741936 -0.10467021 0 0 0 0.5 0 0 0 0 0 0 0 0 0 
7.748735 8.9164064 -0.99511962 0 0 0 0.5 0 0 0 0 0 0 0 0 0 
10.873215 0.35311098 -0.33543571 0 0 0 0.5 0 0 0 0 0 0 0 0 0 
8.3394361 6.4011831 -1.0221561 0 0 0 0.5 0 0 0 0 0 0 0 0 0 
1.4062252 6.131712 -1.0395699 0 0 0 0.5 0 0 0 0 0 0 0 0 0 
3.958402 5.3597255 -0.041282368 0 0 0 0.5 0 0 0 0 0 0 0 0 0 
19.392966 9.8667961 -0.60930126 0 0 0 0.5 0 0 0 0 0 0 0 0 0 
7.7097786 7.4935787 -0.79672245 0 0 0 0.5 0 0 0 0 0 0 0 0 0 
16.834173 0.70330748 -0.32212776 0 0 0 0.5 0 0 0 0 0 0 0 0 0 
4.1792906 2.3876319 -0.47448372 0 0 0 0.5 0 0 0 0 0 0 0 0 0 
5.7737697 3.132453 -0.61911983 0 0 0 0.5 0 0 0 0 0 0 0 0 0 
1.2598145 4.1394057 -1.1130933 0 0 0 0.5 0 0 0 0 0 0 0 0 0 
14.135291 9.5845665 -0.065830801 0 0 0 0.5 0 0 0 0 0 0 0 0 0 
1.2872433 8.4193596 -1.0079498 0 0 0 0.5 0 0 0 0 0 0 0 0 0 
5.8163897 5.0852707 -0.35097137 0 0 0 0.5 0 0 0 0 0 0 0 0 0 
10.066018 0.20782103 -0.91029153 0 0 0 0.5 0 0 0 0 0 0 0 0 0 
7.2353001 0.70796927 -0.26583382 0 0 0 0.5 0 0 0 0 0 0 0 0 0 
17.946824 0.91675358 -0.5555375 0 0 0 0.5 0 0 0 0 0 0 0 0 0 
18.518722 0.10548389 -0.18461275 0 0 0 0.5 0 0 0 0 0 0 0 0 0 
17.392493 3.1279607 -1.1110233 0 0 0 0.5 0 0 0 0 0 0 0 0 0 
12.563831 5.3033912 -0.87559375 0 0 0 0.5 0 0 0 0 0 0 0 0 0 
3.0301454 0.98830741 -0.74094925 0 0 0 0.5 0 0 0 0 0 0 0 0 0 
14.789656 9.0848375 -0.63307291 0 0 0 0.5 0 0 0 0 0 0 0 0 0 
0.76591659 5.3533583 -1.0268598 0 0 0 0.5 0 0 0 0 0 0 0 0 0 
9.3937127 2.0603226 -0.5689336 0 0 0 0.5 0 0 0 0 0 0 0 0 0 
16.465276 4.9422347 -0.84868413 0 0 0 0.5 0 0 0 0 0 0 0 0 0 
3.2049107 5.7541726 -1.0165892 0 0 0 0.5 0 0 0 0 0 0 0 0 0 
10.965378 3.893968 -0.039018533 0 0 0 0.5 0 0 0 0 0 0 0 0 0 
11.666086 6.9629197 -1.1930219 0 0 0 0.5 0 0 0 0 0 0 0 0 0 
0.16217955 6.9048891 -0.99581323 0 0 0 0.5 0 0 0 0 0 0 0 0 0 
7.0438615 8.1992023 -1.044164 0 0 0 0.5 0 0 0 0 0 0 0 0 0 
10.22837 8.768928 -0.22497042 0 0 0 0.5 0 0 0 0 0 0 0 0 0 
2.5235672 6.3840667 -0.64383278 0 0 0 0.5 0 0 0 0 0 0 0 0 0 
17.948715 3.2709741 -0.29235671 0 0 0 0.5 0 0 0 0 0 0 0 0 0 
18.320792 5.5542837 -0.41667255 0 0 0 0.5 0 0 0 0 0 0 0 0 0 
16.318669 2.3361522 -0.68313016 0 0 0 0.5 0 0 0 0 0 0 0 0 0 
5.8269404 9.1562384 -0.94701943 0 0 0 0.5 0 0 0 0 0 0 0 0 0 
5.2784129 9.7364165 -0.29297998 0 0 0 0.5 0 0 0 0 0 0 0 0 0 
2.7050339 9.4301296 -1.1047836 0 0 0 0.5 0 0 0 0 0 0 0 0 0 
15.511659 4.6563616 -1.0040712 0 0 0 0.5 0 0 0 0 0 0 0 0 0 
13.248043 7.3385539 -1.1474735 0 0 0 0.5 0 0 0 0 0 0 0 0 0 
19.36412 2.1439434 -0.59764931 0 0 0 0.5 0 0 0 0 0 0 0 0 0 
6.7482243 3.4535243 -0.33759622 0 0 0 0.5 0 0 0 0 0 0 0 0 0 
4.3838663 6.9504711 -1.094259 0 0 0 0.5 0 0 0 0 0 0 0 0 0 
8.4605474 4.0067042 -0.68255122 0 0 0 0.5 0 0 0 0 0 0 0 0 0 
0.93076264 7.0880598 -0.38378408 0 0 0 0.5 0 0 0 0 0 0 0 0 0 
10.440604 7.9496268 -0.75697933 0 0 0 0.5 0 0 0 0 0 0 0 0 0 
13.540837 2.9432128 -0.62547644 0 0 0 0.5 0 0 0 0 0 0 0 0 0 
4.4306496 4.1937646 -1.0212237 0 0 0 0.5 0 0 0 0 0 0 0 0 0 
5.4653239 6.4358523 -0.38625242 0 0 0 0.5 0 0 0 0 0 0 0 0 0 
9.690216 7.3341231 -1.0002723 0 0 0 0.5 0 0 0 0 0 0 0 0 0 
5.812852 7.5665159 -0.39362428 0 0 0 0.5 0 0 0 0 0 0 0 0 0 
0.10451742 8.6179187 -0.42204849 0 0 0 0.5 0 0 0 0 0 0 0 0 0 
5.5944429 2.1988375 -0.92728717 0 0 0 0.5 0 0 0 0 0 0 0 0 0 
11.837768 3.2951193 -0.29868729 0 0 0 0.5 0 0 0 0 0 0 0 0 0 
2.9234914 3.8731159 -0.45856675 0 0 0 0.5 0 0 0 0 0 0 0 0 0 
16.104458 7.6345956 -0.67342419 0 0 0 0.5 0 0 0 0 0 0 0 0 0 
2.8106655 2.6562659 -0.9316452 0 0 0 0.5 0 0 0 0 0 0 0 0 0 
9.1199055 0.35958886 -0.61551899 0 0 0 0.5 0 0 0 0 0 0 0 0 0 
5.7994732 1.3997075 -0.36158056 0 0 0 0.5 0 0 0 0 0 0 0 0 0 
10.071134 0.96251063 -0.2550641 0 0 0 0.5 0 0 0 0 0 0 0 0 0 
19.77684 0.74200996 -0.30601069 0 0 0 0.5 0 0 0 0 0 0 0 0 0 
14.165331 1.3402031 -0.99790401 0 0 0 0.5 0 0 0 0 0 0 0 0 0 
1.8070193 2.5893485 -0.79039818 0 0 0 0.5 0 0 0 0 0 0 0 0 0 
1.667264 6.4145293 -0.11714092 0 0 0 0.5 0 0 0 0 0 0 0 0 0 
0.32089931 4.271173 -0.79581161 0 0 0 0.5 0 0 0 0 0 0 0 0 0 
7.6143991 5.5888244 -0.96911458 0 0 0 0.5 0 0 0 0 0 0 0 0 0 
5.105805 2.5567007 -0.13212177 0 0 0 0.5 0 0 0 0 0 0 0 0 0 
16.825686 6.9435971 -0.72005987 0 0 0 0.5 0 0 0 0 0 0 0 0 0 
18.501394 9.2019981 -1.1951819 0 0 0 0.5 0 0 0 0 0 0 0 0 0 
0.15661435 9.6300393 -0.0090132672 0 0 0 0.5 0 0 0 0 0 0 0 0 0 
1.7970379 9.6005612 -0.65794258 0 0 0 0.5 0 0 0 0 0 0 0 0 0 
15.15484 7.4498569 -0.92301676 0 0 0 0.5 0 0 0 0 0 0 0 0 0 
5.0872521 8.0042546 -0.92427146 0 0 0 0.5 0 0 0 0 0 0 0 0 0 
10.029751 9.7300495 -0.032750693 0 0 0 0.5 0 0 0 0 0 0 0 0 0 
4.5002078 9.95578 -0.88127416 0 0 0 0.5 0 0 0 0 0 0 0 0 0 
15.633092 9.170716 -0.096482398 0 0 0 0.5 0 0 0 0 0 0 0 0 0 
13.094183 6.9327498 -0.15762933 0 0 0 0.5 0 0 0 0 0 0 0 0 0 
11.33655 7.5936095 -0.49098156 0 0 0 0.5 0 0 0 0 0 0 0 0 0 
8.8249086 1.258198 -0.29165699 0 0 0 0.5 0 0 0 0 0 0 0 0 0 
0.54589657 3.6227789 -0.06862893 0 0 0 0.5 0 0 0 0 0 0 0 0 0 
18.530708 1.5478274 -1.1646706 0 0 0 0.5 0 0 0 0 0 0 0 0 0 
14.924125 3.9545618 -0.29560731 0 0 0 0.5 0 0 0 0 0 0 0 0 0 
8.4615171 8.0164423 -0.12897922 0 0 0 0.5 0 0 0 0 0 0 0 0 0 
16.952689 9.1588918 -0.60545627 0 0 0 0.5 0 0 0 0 0 0 0 0 0 
14.184071 4.7397171 -0.39659702 0 0 0 0.5 0 0 0 0 0 0 0 0 0 
6.517793 4.4025096 -0.54960416 0 0 0 0.5 0 0 0 0 0 0 0 0 0 
18.483001 7.3538512 -0.40243172 0 0 0 0.5 0 0 0 0 0 0 0 0 0 
10.121178 6.0214348 -0.57315551 0 0 0 0.5 0 0 0 0 0 0 0 0 0 
6.7851115 7.3461154 -0.44894394 0 0 0 0.5 0 0 0 0 0 0 0 0 0 
3.4574059 6.2560466 -0.037426403 0 0 0 0.5 0 0 0 0 0 0 0 0 0 
12.743312 0.52200261 -0.70797936 0 0 0 0.5 0 0 0 0 0 0 0 0 0 
7.3845213 1.5752532 -1.1980784 0 0 0 0.5 0 0 0 0 0 0 0 0 0 
9.5500273 5.206742 -0.37220347 0 0 0 0.5 0 0 0 0 0 0 0 0 0 
9.259225 9.4738246 -1.0573646 0 0 0 0.5 0 0 0 0 0 0 0 0 0 
4.1386055 0.8708894 -0.70379195 0 0 0 0.5 0 0 0 0 0 0 0 0 0 
11.470166 6.0192048 -0.66367077 0 0 0 0.5 0 0 0 0 0 0 0 0 0 
11.536141 4.5912983 -0.47192676 0 0 0 0.5 0 0 0 0 0 0 0 0 0 
1.9592696 0.81195279 -0.81414268 0 0 0 0.5 0 0 0 0 0 0 0 0 0 
9.9822382 2.8121173 -0.86619136 0 0 0 0.5 0 0 0 0 0 0 0 0 0 
10.403064 1.9331225 -0.64340374 0 0 0 0.5 0 0 0 0 0 0 0 0 0 
14.870177 2.2061334 -1.0022641 0 0 0 0.5 0 0 0 0 0 0 0 0 0 
15.664 1.6086803 -0.89802714 0 0 0 0.5 0 0 0 0 0 0 0 0 0 
1.5062852 3.5411477 -0.35196296 0 0 0 0.5 0 0 0 0 0 0 0 0 0 
5.110032 0.68772283 -0.55147198 0 0 0 0.5 0 0 0 0 0 0 0 0 0 
6.8037688 9.1216611 -0.74176189 0 0 0 0.5 0 0 0 0 0 0 0 0 0 
0.40602202 1.3778394 -0.75348021 0 0 0 0.5 0 0 0 0 0 0 0 0 0 
3.4344672 9.2598245 -0.37631743 0 0 0 0.5 0 0 0 0 0 0 0 0 0 
19.458073 8.0010551 -0.91160224 0 0 0 0.5 0 0 0 0 0 0 0 0 0 
16.776673 4.206989 -0.18577169 0 0 0 0.5 0 0 0 0 0 0 0 0 0 
9.2536151 6.5121729 -0.63667318 0 0 0 0.5 0 0 0 0 0 0 0 0 0 
18.430869 4.0971512 -0.5822226 0 0 0 0.5 0 0 0 0 0 0 0 0 0 
17.909879 8.1138038 -0.080108903 0 0 0 0.5 0 0 0 0 0 0 0 0 0 
15.306545 3.0912459 -1.1598374 0 0 0 0.5 0 0 0 0 0 0 0 0 0 
10.546115 2.6954085 -0.012695634 0 0 0 0.5 0 0 0 0 0 0 0 0 0 
17.020294 6.1441482 -0.15184553 0 0 0 0.5 0 0 0 0 0 0 0 0 0 
7.3075666 3.4315435 -1.1656661 0 0 0 0.5 0 0 0 0 0 0 0 0 0 
4.7948421 3.3179784 -0.70085971 0 0 0 0.5 0 0 0 0 0 0 0 0 0 
12.076644 6.6176439 -0.14008962 0 0 0 0.5 0 0 0 0 0 0 0 0 0 
6.2141732 4.6679806 5.2934881 4.5208041 0.56274847 0.73227804 0.5 56.081455 675.58559 -102.26598 -1.3282031 2.2405685 0.38798008 1 10 1 -1.977531e-05 1.8678429e-05 1.1712995e-05 108 -1 218.6005 
4.2596611 4.5983792 9.6662307 7.9937794 -0.38680267 0.45835323 0.5 39.977447 574.87106 -39.403264 -1.0457206 0.85833503 0.23423053 1 10 0 
10.112845 5.1018154 5.3609274 4.6647914 0.38266495 0.57639192 0.5 -2.8734433 741.84138 18.841091 0.98279233 -0.56434674 2.0197437 1 10 1 -2.5549553e-05 3.149009e-05 -9.8170362e-06 15 -1 702.6919 
15.534395 1.1201163 3.1938552 2.4101487 0.091660511 -0.8662755 0.5 -0.40423516 592.33686 28.907793 -0.328749 1.0372493 0.34529472 1 10 1 2.0204094e-05 -8.7080637e-06 -1.7335832e-05 297 -1 1864.938 
8.9096211 6.8088762 1.5106483 0.70738928 0.12384497 0.24423487 0.5 -41.26791 640.8217 -58.478783 -0.69946575 1.3888381 -2.1412895 1 10 1 3.4258475e-06 7.8640151e-05 -1.464233e-07 183 -1 1971.7091 
8.0325807 7.8902527 3.6434779 3.3504101 -0.030669467 0.0016116156 0.5 -9.3591511 683.35655 -37.513753 -0.47458455 1.5401986 1.0363502 1 10 1 1.2976312e-05 -8.0807795e-06 2.3188259e-06 141 -1 1632.1061 
0.71218326 9.7235936 9.2594864 6.8456254 0.39929806 -0.5235562 0.5 -0.83403496 722.25748 26.736108 0.29792469 -0.50564299 -0.30632358 1 10 1 -2.2195947e-05 -1.7572242e-05 -1.14818e-05 297 -1 1406.0401 
10.338975 0.066692758 5.4924287 3.3499176 -0.28867429 0.05257477 0.5 8.6425334 689.50919 40.47747 2.0948164 -0.65113034 -0.41756249 1 10 1 3.3831195e-05 7.2898982e-06 -1.5955977e-05 301 -1 1750.6103 
18.639764 5.0756357 12.717723 8.6237597 0.19964491 0.64768042 0.5 -34.90505 520.48407 -36.99545 -0.70292171 1.1997627 0.46387821 1 10 1 -3.005707e-06 9.4765647e-06 7.1705452e-06 298 -1 1650.5891 
12.904492 6.8808715 4.0227301 3.8787717 0.04002868 0.52657139 0.5 -40.451355 678.49312 3.3176732 1.4566996 -1.4333249 1.0889182 1 10 1 1.3245675e-05 1.8971311e-05 1.5824018e-05 302 -1 1941.0826 
18.709941 7.3548206 11.644912 8.8164602 -0.36900122 0.17437879 0.5 18.865455 632.58873 -24.238738 0.44138028 0.47938831 -1.5392098 1 10 1 -4.7314482e-06 -3.6273467e-05 -1.9396179e-05 298 -1 1966.66 
17.287201 0.87768125 5.9519662 5.1671143 0.28500536 -0.84350746 0.5 33.267965 731.80021 -22.529086 1.2698336 -1.2592751 -2.5477162 1 10 1 -3.1113163e-05 -2.9022888e-07 2.6148873e-05 302 -1 1949.0809 
13.457699 1.0631418 10.06985 7.2719889 -0.030487518 0.56856659 0.5 -1.5664821 799.69391 -52.9291 -0.82555885 -0.6982793 -2.5349754 1 10 1 3.7955552e-05 -9.4267701e-05 -6.6082777e-06 302 -1 1931.2778 
2.7608226 9.0494413 15.611157 11.081789 -0.23979961 0.49428757 0.5 11.062135 553.54307 -28.801022 -0.10992835 1.3410927 -0.95473914 1 10 1 -8.749234e-06 3.5038812e-06 1.1063691e-05 297 -1 1063.4271 
18.199508 7.5845893 23.438316 14.642893 -0.29533422 0.45493022 0.5 5.3912224 563.16818 -4.1897366 -0.43854023 -0.67409692 -0.91080065 1 10 1 -2.0668449e-05 -3.3163929e-06 3.102628e-06 310 -1 1435.1999 
14.055926 2.83103 13.78846 10.303346 -0.33247133 -0.34329735 0.5 39.476433 721.17174 -5.8735952 -0.34030406 0.98351983 0.92644838 1 10 1 -2.1653028e-05 4.7255536e-05 8.7812081e-06 307 -1 1936.24 
2.9291722 9.6538314 0.39396787 0.21900607 0.68079113 -0.16543207 0.5 -24.055648 625.45522 -28.882938 -2.2495093 1.0808435 0.62316189 1 10 1 -7.8314028e-06 -9.0041948e-06 -8.4434183e-07 285 -1 1999.97 
7.5401246 0.063597904 2.5593581 1.3572956 -0.045355057 0.62912251 0.5 22.677669 638.52108 5.8324624 0.74591622 0.28893022 1.0447146 1 10 1 -4.2107126e-06 -1.7217987e-05 4.9740111e-05 300 -1 1989.7666 
9.2840047 3.8564285 4.9534235 3.2229109 -0.59942545 -0.3791483 0.5 -13.006776 666.04778 13.767303 0.76341732 1.7980841 2.3601886 1 10 1 -3.7883689e-05 -4.960669e-05 2.8799209e-05 301 -1 1641.788 
5.3108378 6.2434196 0.98257161 0.64372276 0.093704438 -0.42473983 0.5 9.1333551 695.311 -10.487664 -1.9609909 0.24696016 0.32447032 1 10 1 1.6845176e-05 -1.241662e-05 -1.8996893e-05 303 -1 1816.3329 
1.0816376 4.5631854 0.63480809 0.57308393 0.44110102 0.2786151 0.5 65.176951 645.83463 18.085866 -1.5269246 0.52407883 2.3997945 1 10 1 -5.5478276e-06 -8.4410654e-06 -3.7235078e-06 103 -1 1999.9737 
13.493529 7.3373955 8.5185908 6.5711806 -0.15651563 -0.04062305 0.5 12.415731 729.08239 13.89159 1.8683232 -0.15896606 -1.3205676 1 10 1 1.2679945e-05 -9.7215589e-06 -5.880712e-06 299 -1 1814.7876 
14.815715 1.577919 15.062562 11.143191 -0.15476305 -0.1333628 0.5 17.637638 609.4214 29.852678 0.54358329 0.63986882 -0.78297697 1 10 1 2.2049891e-05 7.4407058e-06 -1.1210667e-05 312 -1 1971.0559 
3.8939041 1.9273874 3.3557329 2.9138317 -0.3624865 0.41436651 0.5 -2.9639673 576.42334 3.3730163 -0.31912873 -0.17376384 1.7556002 1 10 1 -1.0585057e-05 -1.8934146e-05 -6.8125491e-06 308 -1 1934.681 
4.3879183 5.6109585 1.8872871 1.3845073 -0.75423603 -0.13287436 0.5 -32.894052 731.47096 -8.9696393 -1.2246622 0.45027049 -0.88475288 1 10 1 -1.0614321e-05 1.9450324e-05 1.5094587e-06 317 -1 1976.4573 
7.4828781 1.9518643 6.5155933 5.507572 0.15557083 0.014539483 0.5 37.179748 648.0294 -36.557898 0.84077147 -2.5931063 1.5412039 1 10 1 -4.7894709e-06 2.7523092e-06 6.1314682e-07 252 -1 1928.8401 
7.211062 0.42280908 27.543356 16.250384 0.16375634 0.13069136 0.5 -12.422661 423.4388 -8.1876165 -0.74796936 -0.082681022 0.35317829 1 10 1 9.4083333e-06 -9.0608224e-06 -2.0884001e-07 298 -1 588.6801 
4.0834254 1.4668267 7.5819837 5.85346 -0.14846449 0.23602746 0.5 -42.134749 640.42109 27.857839 0.18463599 0.55186337 -1.7878976 1 10 1 4.5301154e-06 3.6968767e-06 6.065875e-08 309 -1 1990.7376 
5.3048194 3.6149028 2.8513827 1.7630898 0.22945654 1.1096739 0.5 -24.933245 636.1481 -57.945185 0.075281295 0.68597142 -0.81230441 1 10 1 1.9767979e-05 3.4436755e-06 -9.0999546e-06 301 -1 1973.1229 
16.91594 4.5947148 4.4633886 4.311554 -0.27431427 0.7569422 0.5 16.729165 657.85802 5.2232753 -0.42153935 -2.4934339 -0.59790073 1 10 1 2.1708631e-05 2.2115653e-06 1.8144876e-06 315 -1 1980.4279 
5.1185381 7.8802555 14.374897 10.388251 0.63017948 -0.55542935 0.5 8.9193762 549.27627 -55.665037 -0.63546215 1.9114633 1.4903995 1 10 1 -1.2443983e-05 -3.9811512e-06 9.4648757e-06 319 -1 1856.8337 
11.802517 7.2610557 13.115361 9.8885232 0.1454748 0.59459947 0.5 -0.76055281 582.94816 4.0156923 -0.65088254 1.1941858 -1.305333 1 10 1 -2.3074315e-05 -8.2231852e-05 -2.8057101e-05 319 -1 1567.2574 
14.456961 3.0380509 28.016812 15.987391 0.21997936 -0.032524437 0.5 -23.876196 369.67786 9.7433976 0.72950929 0.61320259 -0.29826375 1 10 1 -1.8770024e-05 -8.3190711e-06 6.0010758e-06 324 -1 238.8509 
19.013682 3.0369482 6.7803861 5.6883997 0.25944378 -0.061342227 0.5 -1.7414722 666.76733 -29.841317 -0.092028714 1.9184159 -0.62938547 1 10 1 -2.9074315e-06 -2.2167414e-05 5.6100419e-05 315 -1 1988.4405 
13.422636 7.3099636 13.201618 9.6889644 0.2307552 -0.30962944 0.5 41.085781 722.41526 2.5620351 0.5227447 0.55791136 0.59251728 1 10 1 3.0190548e-05 2.7166051e-06 -1.6585908e-05 328 -1 1996.9486 
19.493432 7.5098259 3.6403168 2.0746173 -0.34037564 0.14070849 0.5 4.8238618 727.67942 -23.588891 -1.2062063 0.15497642 -0.58980619 1 10 1 -1.3361397e-05 -8.1448998e-07 1.7642256e-05 306 -1 1982.949 
6.8321009 0.35995369 14.503963 10.627561 0.29765027 0.06256241 0.5 -11.914791 625.57249 41.02561 0.48147406 0.84854344 0.83543204 1 10 1 8.1237068e-06 -8.790241e-06 -6.4742623e-06 328 -1 1759.2341 
13.280593 8.0376121 1.5467536 1.2834404 0.087654847 0.51070964 0.5 28.18991 673.92754 -8.035987 -0.87301701 1.6999978 0.55042386 1 10 1 -1.5404193e-05 4.8412696e-06 6.4805637e-07 332 -1 1967.9425 
13.876127 2.3542449 5.4476743 5.1411402 0.82750743 -0.20982283 0.5 26.485824 605.42262 25.962613 0.61817977 1.2951234 0.81701491 1 10 1 -3.6724496e-05 1.5753134e-06 4.7808001e-06 330 -1 1985.8341 
12.557325 1.3306204 20.308023 13.70046 0.021133248 -0.022455584 0.5 -59.50825 622.65688 -54.370847 -0.12492227 0.71617678 0.23633413 1 10 1 6.9853835e-06 -1.9174008e-05 1.3635799e-05 333 -1 1829.0377 
7.3594385 0.78539781 12.853956 9.8563245 -0.080710186 -0.4516148 0.5 -23.08481 670.3602 4.3720335 -0.62016573 0.77670098 -0.18683994 1 10 1 -3.6558594e-06 4.2690045e-06 1.0598171e-06 310 -1 1983.1839 
19.81558 0.82159432 1.5400702 1.3615788 -0.036094337 0.12643366 0.5 -5.2948709 679.02498 8.9727682 -0.035899477 2.5842516 1.107137 1 10 1 1.16768e-06 7.6016071e-06 5.3563267e-06 314 -1 1972.3011 
5.9706572 0.20268353 1.3223733 0.57567765 -0.96117316 0.30294018 0.5 -51.455295 636.03676 26.442594 1.0816357 0.64157218 0.30261807 1 10 1 2.1007615e-05 3.3153477e-05 1.4733172e-05 314 -1 1997.8053 
12.43838 4.8738472 14.205801 10.99643 0.45308184 -0.082916179 0.5 -29.460326 557.72949 40.593682 -0.86262173 0.96795256 -0.060041167 1 10 1 -1.4556886e-05 2.5491586e-05 -1.3183857e-05 319 -1 1899.6295 
8.6005649 6.2277066 20.381225 13.726392 0.094373159 -0.24766385 0.5 29.367305 483.5066 2.8200125 1.1401933 0.58097685 0.2111969 1 10 1 3.9794219e-06 -5.3133089e-06 -6.0925487e-06 329 -1 717.2049 
19.053982 6.9753644 16.605013 11.856072 0.33510145 -0.30665496 0.5 61.585069 594.30671 -8.1737055 2.3739394 -1.2920706 0.99352267 1 10 1 -2.3238232e-05 1.5873607e-06 -1.6847047e-05 331 -1 1910.1217 
10.441895 9.2460068 19.705592 13.186361 -0.37200144 -0.42130271 0.5 7.2326701 565.29507 34.189345 -1.3037905 -0.087907146 2.0514293 1 10 1 -1.5355542e-05 1.0604893e-05 4.5074888e-07 336 -1 1940.2182 
9.8680808 1.120509 7.0329199 5.513723 -0.20722677 -0.17632245 0.5 8.4770002 660.77514 -3.5459893 0.25545405 2.435318 1.3787469 1 10 1 -1.7636749e-05 1.3591666e-05 1.0594463e-05 302 -1 1955.5137 
1.8246818 5.79069 9.3168532 7.720967 0.53703769 -0.067632257 0.5 22.71152 535.98954 30.914162 -1.4465739 -0.19044105 -0.61362627 1 10 1 -1.1667386e-05 1.6338789e-05 -9.737079e-06 307 -1 1983.4314 
5.5529824 9.8472387 2.1586195 0.86270406 -0.9506226 0.49067296 0.5 25.693683 696.77986 9.3782233 -2.0642655 0.34675139 -0.14766047 1 10 1 2.247639e-05 -1.3770833e-05 5.4145247e-06 339 -1 1999.9969 
0.49582328 6.4010574 2.8247954 1.6669259 0.21383177 -0.33165953 0.5 23.797353 706.45224 -44.056165 -0.9667969 2.7478273 1.450004 1 10 1 1.4297649e-06 4.6024324e-05 -4.6093051e-06 321 -1 1980.5252 
14.957245 1.1286148 27.083512 15.866472 0.4059842 0.031127661 0.5 -13.994319 376.48521 -26.178905 0.22833888 -0.33727176 -0.29837768 1 10 1 -9.8738818e-06 2.6173637e-07 2.0551978e-05 323 -1 1961.7318 
13.180395 7.8059218 2.514201 1.2627373 -0.079592474 0.39659366 0.5 -15.076395 710.76058 -12.829155 0.81219229 -1.985569 1.0538444 1 10 1 -0.00013691057 -0.00025661061 -7.5634437e-05 334 -1 2000.0001 
1.8611151 4.6831789 15.017499 10.744031 0.076168334 0.70761169 0.5 41.255328 578.05871 -5.4869676 0.65493616 -1.7863754 -1.4501368 1 10 1 -3.2020775e-05 1.0539378e-05 -1.9468328e-06 327 -1 1842.4119 
5.5379898 3.6023887 3.8583343 2.7000209 0.17832623 -0.61333308 0.5 11.189134 661.0601 -9.2528038 0.41789011 4.8424831 0.15063893 1 10 1 -3.9603681e-05 -4.5076146e-05 -4.3821931e-06 325 -1 1999.8355 
9.0583911 6.849964 11.855241 8.2853227 0.38842358 -0.15325594 0.5 -26.624697 570.48878 8.4448685 2.0786428 2.363959 -1.344379 1 10 1 -2.1720741e-05 -2.2941972e-05 3.467903e-05 337 -1 1940.9625 
15.768332 3.2466173 8.8089101 6.7183327 0.15414571 -0.3339227 0.5 24.59186 677.74826 60.218116 -1.9145304 -0.36767597 1.0976816 1 10 1 -1.1843565e-05 2.7149957e-06 5.9728809e-06 312 -1 1948.06 