MercuryDPM 0.14 name HourGlass3DSelfTest revision 5000 repository https://svn.mercurydpm.org/SourceCode/MercuryLab
dataFile    fileType ONE_FILE saveCount 500 counter 5 lastSavedTimeStep 1673
fStatFile   fileType ONE_FILE saveCount 500 counter 5 lastSavedTimeStep 1673
eneFile     fileType ONE_FILE saveCount 500 counter 5 lastSavedTimeStep 1673
restartFile fileType ONE_FILE saveCount 500 counter 5 lastSavedTimeStep 1673
statFile    fileType ONE_FILE saveCount 500 counter 0
interactionFile fileType NO_FILE saveCount 0 counter 0
xMin 0 xMax 0.1 yMin 0 yMax 0.1 zMin 0 zMax 0.6
timeStep 5.97983663675478e-06 time 0.0100042666932903 ntimeSteps 1673 timeMax 0.01
systemDimensions 3 particleDimensions 3 gravity 0 0 -9.8 writeVTK 1 ONE_FILE NO_FILE 5 1 0 0 random  0 1103515245 12345 1073741824 607 273 784607267 xBallsArguments -v0 -solidf
Species 1
LinearViscoelasticFrictionSpecies id 0 density 2000 stiffness 100000 dissipation 0.63 slidingStiffness 12000 slidingDissipation 0.063 slidingFrictionCoefficient 0.5 slidingFrictionCoefficientStatic 0.5 rollingStiffness 12000 rollingDissipation 0.063 rollingFrictionCoefficient 0.2 rollingFrictionCoefficientStatic 0.2 torsionStiffness 12000 torsionDissipation 0 torsionFrictionCoefficient 0.1 torsionFrictionCoefficientStatic 0.1
Walls 3
AxisymmetricIntersectionOfWalls id 0 indSpecies 0 position 0.05 0.05 0 orientation 0.707106781186548 0 -0.707106781186548 0 velocity 0 0 0 angularVelocity 0 0 0 force -9.75761255449661 -14.0497700694319 -4.25354950371065 torque 7.03608870445045 -6.9239862477168 0.0666419060561235 numIntersectionOfWalls 1 position 0.05 0 0 orientation 1 0 -0 0
AxisymmetricIntersectionOfWalls id 1 indSpecies 0 position 0.05 0.05 0 orientation 0.707106781186548 0 -0.707106781186548 0 velocity 0 0 0 angularVelocity 0 0 0 force 0 0 0 torque 0 0 0 numIntersectionOfWalls 2 position 0.05 0 0.35 orientation 0.97324898946773 0 0.229752920547361 0 position 0.025 0 0.3 orientation 0.97324898946773 0 -0.229752920547361 0
InfiniteWall id 2 indSpecies 0 position 0 0 0.3 orientation 0.707106781186548 0 0.707106781186548 0 velocity 0 0 0 angularVelocity 0 0 0 force 0 0 0 torque 0 0 0
Boundaries 0
Particles 612
BaseParticle id 0 indSpecies 0 position 0.068185332691601 0.0851244019330957 0.351852300225885 orientation 0.999999730287887 -0.000404850442775224 -0.000491413468562718 -0.000366105280283943 velocity -0.265991262296689 0.154774597762247 -0.644583066869475 angularVelocity -6.48091427350591 -7.93075456393845 -5.76073625401225 force -2.39938252973153 1.88780458424496 0.0396572311761316 torque -0.0026581656382588 -0.00332004126683812 -0.00222336994495743 radius 0.00771853391666102 invMass 259.583416703278
BaseParticle id 1 indSpecies 0 position 0.0784795789483694 0.071915506022651 0.35520774208385 orientation 0.999899681842512 0.000979281610615504 0.000963187859125874 0.014097500768557 velocity -0.275756871609224 0.040575156665646 -0.462154918208602 angularVelocity -2.57700070941137 -3.52114131361771 4.0392636470346 force 2.39938252973153 -1.88780458424496 -0.145394344785817 torque -0.00469875388617807 -0.00552782519807847 -0.010036298864732 radius 0.0093904849035754 invMass 144.150893457167
BaseParticle id 2 indSpecies 0 position 0.088174806802614 0.0528294880667081 0.354542411040598 orientation 1 0 0 0 velocity -0.172425697397044 0 -0.21154501535322 angularVelocity 0 0 0 force 0 0 -0.0192686269532034 torque 0 0 0 radius 0.0061683455666822 invMass 508.598771661348
BaseParticle id 3 indSpecies 0 position 0.0807107060501016 0.0333541265381143 0.353616640146345 orientation 1 0 0 0 velocity -0.565877659650634 0 -0.326964308068208 angularVelocity 0 0 0 force 0 0 -0.0214944678770018 torque 0 0 0 radius 0.00639726005830126 invMass 455.931268272317
BaseParticle id 4 indSpecies 0 position 0.0707923130737814 0.0179542553781227 0.349387009052656 orientation 1 0 0 0 velocity -0.314523071689044 0 -0.964383027414268 angularVelocity 0 0 0 force 0 0 -0.051216524711782 torque 0 0 0 radius 0.00854453582824717 invMass 191.344493894284
BaseParticle id 5 indSpecies 0 position 0.0487443922657387 0.00997841103548456 0.356368998859094 orientation 0.999489733904565 -0.0296870807695167 -0.0113575348494402 -0.00315522691893156 velocity -0.239729664613569 -0.176211436519092 -0.640713202402393 angularVelocity -28.4684674200857 13.5772246787978 -5.85881865405872 force 0 0 -0.048364324814171 torque 0 0 0 radius 0.00838288450764224 invMass 202.628694552323
BaseParticle id 6 indSpecies 0 position 0.0334221277943108 0.0115561733252709 0.351401288871258 orientation 0.996498184103682 -0.0167038963300182 -0.0732923370312194 -0.0366139626093948 velocity -0.341428182132215 -0.379240708131087 -0.64440417799446 angularVelocity -13.1553819242124 -55.5680766529887 -26.6559451959269 force 0 0 -0.0353278101342513 torque 0 0 0 radius 0.00754960122187659 invMass 277.401853179081
BaseParticle id 7 indSpecies 0 position 0.0239408382170289 0.0252121814020841 0.349101278543523 orientation 0.996361682173086 -0.00672891741766043 -0.0334059227240422 -0.0781163510064233 velocity -0.121347317953697 0.529952269509194 -0.965425526859242 angularVelocity -5.25862660796713 -26.7397073424109 -62.3196319807077 force 0 0 -0.039180942478349 torque 0 0 0 radius 0.00781465961242592 invMass 250.121599433586
BaseParticle id 8 indSpecies 0 position 0.0164046350416795 0.0415681680227688 0.352136560171725 orientation 1 0 0 0 velocity 0.550349157722342 0 -0.520949825024258 angularVelocity 0 0 0 force 0 0 -0.0264795793779703 torque 0 0 0 radius 0.00685786292994594 invMass 370.096513245717
BaseParticle id 9 indSpecies 0 position 0.0083400820138907 0.0611596022374947 0.351658093240808 orientation 0.999810538080446 0.00496992078266748 0.0184353777332668 -0.00378479570591048 velocity 0.346727572870677 -0.163362428140143 -0.35194279483969 angularVelocity 8.52666885039021 31.6385239809004 -6.49245246792565 force 0 0 -0.0229309670216185 torque 0 0 0 radius 0.00653671017611706 invMass 427.369678337634
BaseParticle id 10 indSpecies 0 position 0.0225934324276625 0.0754554581582704 0.351553167254407 orientation 0.989299603827515 0.0316992362458482 -0.0649951033327644 0.12671656888866 velocity -0.63888553958763 -0.240250610748903 -0.735117014360653 angularVelocity 5.46598589548899 -18.9385469369443 16.508465530069 force 0 0 -0.0523387785257505 torque 0 0 0 radius 0.00860649460311374 invMass 187.241664326928
BaseParticle id 11 indSpecies 0 position 0.0415863455982755 0.0896817333228983 0.354493500373614 orientation 0.992062095146512 0.0516016319132317 0.0108109492383508 0.114163016489447 velocity 0.659031938936726 -0.338250860206845 -0.31102929235883 angularVelocity 9.26001369302788 28.7620683094933 2.1736312544368 force 0 0 -0.0394653433122763 torque 0 0 0 radius 0.0078335220126123 invMass 248.319137184639
BaseParticle id 12 indSpecies 0 position 0.0661219316099467 0.0600372632701456 0.353440573520482 orientation 0.998354211493082 0.0306176071356373 0.0224062426758268 0.0430045441374004 velocity -0.512697764911886 -0.31386291750324 -1.16913145140428 angularVelocity 25.0829298963974 17.8059069603223 34.7885209132738 force 0 0 -0.0261963869130726 torque 0 0 0 radius 0.00683332754593964 invMass 374.097391083714
BaseParticle id 13 indSpecies 0 position 0.0621756281699154 0.0416910919055886 0.355208418578121 orientation 1 0 0 0 velocity -0.602515643832725 0 -0.264105156614366 angularVelocity 0 0 0 force 0 0 -0.03273480592034 torque 0 0 0 radius 0.00736017877481861 invMass 299.375533914826
BaseParticle id 14 indSpecies 0 position 0.0538878721831005 0.027796461552376 0.356780231074151 orientation 0.988530851609298 -0.0448749957226042 -0.110498795102134 -0.0926445166022704 velocity 0.319379555727663 -0.310194310348834 -0.220197265259854 angularVelocity -11.737590190399 -28.9022773719934 -24.2322779479913 force 0 0 -0.0467272709842905 torque 0 0 0 radius 0.00828721448193564 invMass 209.727634282232
BaseParticle id 15 indSpecies 0 position 0.0329110361679922 0.038759003635558 0.353865733002392 orientation 0.992854573968264 -0.0354588409332148 -0.0873127481294632 -0.0732048465885365 velocity -0.365374573186282 0.241716626276277 -0.546791390896067 angularVelocity -9.27218547112893 -22.8315413968312 -19.1424450740757 force 0 0 -0.0599649838769803 torque 0 0 0 radius 0.00900570424366211 invMass 163.428710663959
BaseParticle id 16 indSpecies 0 position 0.0233686168198776 0.0556281164472627 0.350146958593953 orientation 1 0 0 0 velocity -0.742601679877749 0 -0.697096852732565 angularVelocity 0 0 0 force 0 0 -0.023932067362548 torque 0 0 0 radius 0.00663048319459848 invMass 409.49241248319
BaseParticle id 17 indSpecies 0 position 0.0395950909773578 0.0676549597089343 0.352611194179088 orientation 0.999160854736784 0.00676445882209906 -0.0394714127494398 0.00859278965570706 velocity 0.315626864716136 -0.477404128937512 -0.519013888403037 angularVelocity 4.30052686021504 -24.848631262212 5.32759663591881 force 0 0 -0.030959794038036 torque 0 0 0 radius 0.00722466632982281 invMass 316.539573485538
BaseParticle id 18 indSpecies 0 position 0.070859530571567 0.0851033024756149 0.37019834923411 orientation 1 0 0 0 velocity 0.168179145857525 0 -0.818533773567795 angularVelocity 0 0 0 force 0 0 -0.0404288783023133 torque 0 0 0 radius 0.00789676117720384 invMass 242.400986906413
BaseParticle id 19 indSpecies 0 position 0.0839580629696443 0.0694430118111934 0.377744336314613 orientation 0.993846207466952 0.0531676022324077 -0.0855560449742453 0.0460769480844557 velocity 0.0917624065667381 -0.131148946988697 -0.145600364069975 angularVelocity 27.2929381439826 -41.6860725540395 11.4607299151639 force 0 0 -0.0616839748950756 torque 0 0 0 radius 0.00909094904820346 invMass 158.874327030153
BaseParticle id 20 indSpecies 0 position 0.0901739401828013 0.0524325758507719 0.370088475210916 orientation 0.99327109916013 0.00741432853689462 -0.115305352757056 0.00788840485430928 velocity -0.745673413627087 -0.0788681613564748 -0.500987424478687 angularVelocity 2.93748967741294 -45.6881040691348 3.12533898537242 force 0 0 -0.0192017663251782 torque 0 0 0 radius 0.00616120273977406 invMass 510.369714641814
BaseParticle id 21 indSpecies 0 position 0.08883995701957 0.0337058877578399 0.375711522234181 orientation 0.999876615202535 0.00752349409636646 -0.0136911380798801 0.00164442870960491 velocity 0.589634599435251 0.538030246330979 -0.208934245844451 angularVelocity 24.2656140032226 -43.5394072544209 5.07213119537138 force 0 0 -0.0318905069493773 torque 0 0 0 radius 0.00729634869350461 invMass 307.301480517586
BaseParticle id 22 indSpecies 0 position 0.0790335494812465 0.0210393711819267 0.373088659036183 orientation 0.984660249688881 0.0277068463316737 -0.134577996739764 0.107542020357138 velocity 0.463840860834406 0.0996938867504449 -0.727321787804399 angularVelocity 11.892997609987 -38.3262813502347 10.0133461313709 force 0 0 -0.0545100601213286 torque 0 0 0 radius 0.00872389962643022 invMass 179.783327668088
BaseParticle id 23 indSpecies 0 position 0.0561350995079245 0.0118284384670667 0.373244237947111 orientation 0.992412382613286 -0.120463858980328 -0.00456495666516328 -0.0241926163536223 velocity -0.0862732465703661 0.270757997511529 -0.304308279791097 angularVelocity -31.7865749289381 10.7012311639796 -7.7960576136268 force 0 0 -0.0711805763711037 torque 0 0 0 radius 0.00953540052516814 invMass 137.678008518886
BaseParticle id 24 indSpecies 0 position 0.0334125297060224 0.0125417325083682 0.375082044680872 orientation 1 0 0 0 velocity -0.255505102448626 0 -0.310805394821069 angularVelocity 0 0 0 force 0 0 -0.0374961910304982 torque 0 0 0 radius 0.00770100651523005 invMass 261.359880315017
BaseParticle id 25 indSpecies 0 position 0.0148640379840914 0.024123950659736 0.371616875656868 orientation 0.999910291094107 -0.00676211478547232 0.00913082017123032 0.00709307343309626 velocity 0.205111919656237 0.396759146601587 -0.322315138315753 angularVelocity -19.2347710902366 25.9903303382164 20.1715821883259 force 0 0 -0.0194401287153561 torque 0 0 0 radius 0.00618659213540462 invMass 504.11188853183
BaseParticle id 26 indSpecies 0 position 0.0141024654785847 0.0437249813210789 0.370635173894722 orientation 0.984938935297107 -0.0334795653549033 0.167620446140023 0.026034563089627 velocity -0.207062726416561 0.6254192569253 -0.579823024044031 angularVelocity -11.9163706503137 23.3214539616107 -52.0866700345676 force 0 0 -0.0383921582964037 torque 0 0 0 radius 0.00776186257064169 invMass 255.260460335151
BaseParticle id 27 indSpecies 0 position 0.0121423946822117 0.0595196434477422 0.370707927817892 orientation 0.991383793970259 0.0331085182799072 0.122158310486061 -0.0337542034365278 velocity 0.675415603206429 -0.315012429365715 -0.534125254391812 angularVelocity 11.3934144904528 42.0434987633617 -11.6157361396786 force 0 0 -0.0271925635019506 torque 0 0 0 radius 0.00691886978138343 invMass 360.392649236509
BaseParticle id 28 indSpecies 0 position 0.0260731620402519 0.0783467909716504 0.37420164780755 orientation 0.982192323512142 0 -0.187878257480261 0 velocity 0.419753558941488 0 -0.639777958099576 angularVelocity 0 -40.9443610506932 0 force 0 0 -0.0783209742070714 torque 0 0 0 radius 0.00984414042174431 invMass 125.126124888206
BaseParticle id 29 indSpecies 0 position 0.0470286061180648 0.0884068114660146 0.371990272868578 orientation 1 0 0 0 velocity 0.820172662082899 0 -0.631854340641728 angularVelocity 0 0 0 force 0 0 -0.0392778035727001 torque 0 0 0 radius 0.00782109397852691 invMass 249.504786637597
BaseParticle id 30 indSpecies 0 position 0.0711507290977028 0.0594541089338606 0.369480231398403 orientation 0.997669663954951 0.0547551456051495 -0.0349282666702054 0.0209076981322635 velocity 0.0846307906519424 -0.396874246827829 -0.450730973447136 angularVelocity 28.8863395882144 -4.97920390387034 12.1590301502951 force 0 0 -0.0423958324814696 torque 0 0 0 radius 0.00802280362879596 invMass 231.154795799408
BaseParticle id 31 indSpecies 0 position 0.0672649109614345 0.0416910919055886 0.375210403713407 orientation 1 0 0 0 velocity -0.09380441615935 0 -0.514866825509931 angularVelocity 0 0 0 force 0 0 -0.0789602303276007 torque 0 0 0 radius 0.0098708505221914 invMass 124.113113137341
BaseParticle id 32 indSpecies 0 position 0.0435570575486159 0.0301945060053761 0.370075301072087 orientation 1 0 0 0 velocity -0.92924855842325 0 -0.771422981362229 angularVelocity 0 0 0 force 0 0 -0.0319699726584315 torque 0 0 0 radius 0.00730240408582389 invMass 306.537640951514
BaseParticle id 33 indSpecies 0 position 0.0272160897659546 0.0367551344738733 0.369830354923999 orientation 0.99995728980343 -0.00156160655118411 0.00282979381638422 -0.00865865006313744 velocity 0.598602547003766 -0.461847784095926 -0.866833572052528 angularVelocity -13.1294315580306 24.2779099378974 -71.1850436276234 force 0 0 -0.0284969184466037 torque 0 0 0 radius 0.00702777323403603 invMass 343.89683285801
BaseParticle id 34 indSpecies 0 position 0.0300794807792223 0.0556281164472627 0.374621594442554 orientation 1 0 0 0 velocity -0.0718014938088123 0 -0.381319726327155 angularVelocity 0 0 0 force 0 0 -0.0411898715314077 torque 0 0 0 radius 0.00794600045499764 invMass 237.922567748904
BaseParticle id 35 indSpecies 0 position 0.0440045681133122 0.0691961561590291 0.374373184691262 orientation 1 0 0 0 velocity -0.0346594890256791 0 -0.407078136175817 angularVelocity 0 0 0 force 0 0 -0.0413344212636956 torque 0 0 0 radius 0.00795528470542721 invMass 237.0905337583
BaseParticle id 36 indSpecies 0 position 0.0647943328594824 0.0851033024756149 0.392897540732411 orientation 1 0 0 0 velocity -0.438081952335237 0 -0.663777432582381 angularVelocity 0 0 0 force 0 0 -0.0608083792364928 torque 0 0 0 radius 0.00904772896780844 invMass 161.161999761354
BaseParticle id 37 indSpecies 0 position 0.0816941025745922 0.0716120922347256 0.396027586416735 orientation 1 0 0 0 velocity -0.196389888230348 0 -0.180547267826714 angularVelocity 0 0 0 force 0 0 -0.0325115911637694 torque 0 0 0 radius 0.00734341120967324 invMass 301.430955828487
BaseParticle id 38 indSpecies 0 position 0.0813709989044408 0.053465553370396 0.393779239292858 orientation 0.999601986612021 0.00404246752636424 0.00637984741943852 0.0271813238181024 velocity -0.242594324622754 0.641120206996164 -0.330885147988235 angularVelocity 8.4723250036687 13.4009224843665 56.2399365399795 force 0 0 -0.0215201593209027 torque 0 0 0 radius 0.00639980783648807 invMass 455.386963166263
BaseParticle id 39 indSpecies 0 position 0.0858793355882211 0.0335092573606228 0.39154049280299 orientation 0.999574166232642 -0.000415569086289672 0.00641546379760872 -0.0284632276264498 velocity 0.654908916948518 0.356851786213228 -0.535924116357002 angularVelocity -6.75900573034787 4.70689500942712 -53.4163103726844 force 0 0 -0.0284519924667154 torque 0 0 0 radius 0.00702407814839475 invMass 344.439849387158
BaseParticle id 40 indSpecies 0 position 0.078344178655532 0.020968460838626 0.389942510548567 orientation 0.986545681023478 -0.0856653004162573 -0.107090393487472 -0.0889984448246858 velocity -0.20250754395589 0.102612650613393 -0.520953021688691 angularVelocity -23.8786885243197 -28.2656005648013 -55.9402706511627 force 0 0 -0.0319188087257937 torque 0 0 0 radius 0.00729850647850101 invMass 307.029002372529
BaseParticle id 41 indSpecies 0 position 0.0584549277993875 0.0104874712072871 0.39567027699592 orientation 0.993097924920905 -0.00378993209006212 -0.116969058184389 -0.00777093044632631 velocity 0.32985970811148 0.186039422371727 -0.394324230234742 angularVelocity -6.70959867506056 -15.587267972452 -10.2624284502438 force 0 0 -0.0712621603282968 torque 0 0 0 radius 0.0095390421491684 invMass 137.520388869107
BaseParticle id 42 indSpecies 0 position 0.0409865274932347 0.0127409665177532 0.389473463357978 orientation 0.998397266638962 0.00124732748718323 -0.0560606523402091 -0.00765149666275502 velocity 0.170099913371151 0.0532287908881375 -0.952454908040967 angularVelocity 0.705846378789577 -30.3396897975218 -4.15273747391983 force 0 0 -0.038622593181722 torque 0 0 0 radius 0.00777736085115246 invMass 253.737493852117
BaseParticle id 43 indSpecies 0 position 0.0274506085857353 0.0221877641399168 0.397257046623333 orientation 0.993749511432667 -0.0182232937466339 0.0378464083077516 0.103428571828885 velocity 0.658294321913395 -0.257400854655157 -0.336646750577006 angularVelocity -10.3836139017862 14.492944109294 32.691161815159 force 0 0 -0.0712694225540865 torque 0 0 0 radius 0.00953936617491826 invMass 137.506375789179
BaseParticle id 44 indSpecies 0 position 0.0166859220631075 0.0408750543033158 0.393507438002139 orientation 0.998276743858441 0.0144801321985861 0.0564535769724337 0.00684558908472129 velocity 0.584527969589729 -0.3231398073443 -0.730595292805524 angularVelocity 14.1259101219913 11.0073090369764 5.89952914958861 force 0 0 -0.0784529375282988 torque 0 0 0 radius 0.00984966612993771 invMass 124.915654005499
BaseParticle id 45 indSpecies 0 position 0.0171654379076801 0.0606581397847411 0.395023488121708 orientation 0.999042036557995 0.0353416802498536 0.0170629080932048 0.0193605783636082 velocity 0.481891714416331 0.00847923214628908 -0.468373932385265 angularVelocity 16.4210299435649 10.8373698652608 6.85017459688757 force 0 0 -0.0674127358851821 torque 0 0 0 radius 0.00936409384443975 invMass 145.373123806923
BaseParticle id 46 indSpecies 0 position 0.0191464557581724 0.0787118034295342 0.393025954922516 orientation 0.974465452195506 0.123960460643466 -0.187056408238079 0.00779658973765331 velocity 0.111074278258526 0.19022233518181 -1.02663938004691 angularVelocity 54.6890177703223 -18.006116042636 16.6471466047413 force 0 0 -0.0372778247325888 torque 0 0 0 radius 0.00768602796859478 invMass 262.890876018114
BaseParticle id 47 indSpecies 0 position 0.0295214817536562 0.0884068114660146 0.390319527190555 orientation 1 0 0 0 velocity -0.929793117633282 0 -0.653263297119697 angularVelocity 0 0 0 force 0 0 -0.0211662310650583 torque 0 0 0 radius 0.00636452921073462 invMass 463.001654374739
BaseParticle id 48 indSpecies 0 position 0.0654221333771271 0.0608198624998386 0.394104340256603 orientation 1 0 0 0 velocity -0.140969443003676 0 -0.463060586146972 angularVelocity 0 0 0 force 0 0 -0.046042006749344 torque 0 0 0 radius 0.00824650363042345 invMass 212.84910654203
BaseParticle id 49 indSpecies 0 position 0.0739337052050538 0.0415723712238178 0.394045716506024 orientation 0.999845491181995 0.00519260535854813 0.00951970764341826 0.0138349477415005 velocity -0.352886691877368 -0.20356580600821 -0.306742571543657 angularVelocity 8.02141661990234 13.2495844663215 38.8088052057797 force 0 0 -0.0282725243311161 torque 0 0 0 radius 0.00700927827040732 invMass 346.626282295364
BaseParticle id 50 indSpecies 0 position 0.0628232439670302 0.0301945060053761 0.389058183701829 orientation 1 0 0 0 velocity 0.996548404920335 0 -0.915894086415811 angularVelocity 0 0 0 force 0 0 -0.0379303349388315 torque 0 0 0 radius 0.0077306141799962 invMass 258.368401328489
BaseParticle id 51 indSpecies 0 position 0.0337496761147914 0.0424223271624123 0.392592287340102 orientation 0.933361112129614 -0.00813082666941973 0.0898158512230559 0.347424865101678 velocity 0.292152892293208 0.899564399485129 -0.522136039103188 angularVelocity -2.71303302034946 29.9690769495073 115.926112981398 force 0 0 -0.0227970282432885 torque 0 0 0 radius 0.00652395843665678 invMass 429.88059212872
BaseParticle id 52 indSpecies 0 position 0.0330922084807208 0.0556281164472627 0.390144904768366 orientation 1 0 0 0 velocity 0.229342787312956 0 -0.66449373046898 angularVelocity 0 0 0 force 0 0 -0.0205510222804866 torque 0 0 0 radius 0.00630225903885229 invMass 476.861922791314
BaseParticle id 53 indSpecies 0 position 0.0431740995390326 0.0691961561590291 0.390234158357139 orientation 1 0 0 0 velocity -0.117670928018474 0 -0.704148769518986 angularVelocity 0 0 0 force 0 0 -0.0256811668117603 torque 0 0 0 radius 0.00678823221401476 invMass 381.602598971953
BaseParticle id 54 indSpecies 0 position 0.0655564467506916 0.0851033024756149 0.41358236373952 orientation 1 0 0 0 velocity -0.361903066409842 0 -0.479632216855313 angularVelocity 0 0 0 force 0 0 -0.0403299386418159 torque 0 0 0 radius 0.00789031412648939 invMass 242.995658561179
BaseParticle id 55 indSpecies 0 position 0.0782463173200726 0.0723235733714509 0.410919049564501 orientation 0.999002746433062 -0.00597491186198499 0.00760853035565804 0.0435881097693888 velocity -0.190778507994072 0.32990451093629 -0.697157787718976 angularVelocity -5.65319587660539 7.19885304205028 41.2411309336819 force 0 0 -0.033696643419574 torque 0 0 0 radius 0.00743157138542126 invMass 290.830154148449
BaseParticle id 56 indSpecies 0 position 0.0859509038204784 0.0552419511176076 0.413021766153795 orientation 0.98739078621607 -0.0231022229069089 -0.154403526102191 0.0261777332781239 velocity -0.515070316368188 0.376720274082805 -0.647131331981907 angularVelocity -7.89190647912095 -34.3333785710235 6.80900948476135 force 0 0 -0.0694930912882102 torque 0 0 0 radius 0.00945944486236251 invMass 141.021212588691
BaseParticle id 57 indSpecies 0 position 0.0825373780256038 0.0336230643789867 0.41341708257445 orientation 0.987826591827922 -0.0392665683729393 -0.150184042379022 0.0100754404639178 velocity -0.5515598288871 -0.0690142516951085 -0.620715079346476 angularVelocity -7.85300949098656 -34.5990699335457 6.5508163790819 force 0 0 -0.0712367422495769 torque 0 0 0 radius 0.00953790787277938 invMass 137.56945770577
BaseParticle id 58 indSpecies 0 position 0.0685683006433626 0.0190087408592515 0.414103302646078 orientation 0.997001146631021 -0.0253429597772872 0.0492616350123734 0.0540346122597787 velocity -0.0773038717365133 0.268085164680968 -0.495756913398314 angularVelocity -13.0941739028672 25.4350184412101 27.9193836968168 force 0 0 -0.0596401880531363 torque 0 0 0 radius 0.00898941522558274 invMass 164.318730706696
BaseParticle id 59 indSpecies 0 position 0.0532172101721341 0.00813531619176374 0.416706139975564 orientation 0.997544648104772 -0.0302951191672463 -0.0513647245703571 0.0367225524981713 velocity 0.286418600110163 -0.517565543149657 -0.133082474489461 angularVelocity -13.5642952667696 -0.664229645591398 0.103271415898666 force -1.02134349112014 7.90717301429602 -0.0380082166416979 torque 0.00651930336130209 0.00032888816728026 -0.00396846371335494 radius 0.00808807759537541 invMass 225.603310206918
BaseParticle id 60 indSpecies 0 position 0.0359655819821028 0.0115047149110943 0.416027797255928 orientation 0.998832822714921 -0.0183358661968914 -0.0194239895991167 -0.0402429733768138 velocity -0.774432569562523 -0.361715705595487 -0.145482392727824 angularVelocity -20.1110222252588 -10.1209889636768 -4.25915679097213 force 0 0 -0.0345657842686501 torque 0 0 0 radius 0.00749492419744383 invMass 283.517362830047
BaseParticle id 61 indSpecies 0 position 0.0267399448817937 0.02525302146041 0.415337691598361 orientation 0.997775455081729 -0.013106240271601 0.0162069214212317 -0.0633222188527731 velocity 0.14859012568004 0.45542799248872 -0.231119349509043 angularVelocity -5.7982878017594 7.38343180572982 -43.3987566889899 force -2.19430892305299 -2.62476076695611 0.088229722068907 torque 0.00172176300970079 -0.00149670386153232 0.00383956803498312 radius 0.00823771352112506 invMass 213.531200199721
BaseParticle id 62 indSpecies 0 position 0.019131858586809 0.0415681680227688 0.415009242874663 orientation 0.998614190557039 0 0.0526279243188378 0 velocity 0.798275817329238 0 -0.486933461308451 angularVelocity 0 14.9050932079107 0 force 0 0 -0.0763708859342431 torque 0 0 0 radius 0.00976175078399316 invMass 128.321151183685
BaseParticle id 63 indSpecies 0 position 0.0131572662517758 0.061346487418529 0.413225839089467 orientation 1 0 0 0 velocity 0.151359143525959 0 -0.500943597735906 angularVelocity 0 0 0 force 0 0 -0.0381719525706411 torque 0 0 0 radius 0.00774699421436806 invMass 256.73300263758
BaseParticle id 64 indSpecies 0 position 0.0235659206389764 0.0752600615765788 0.410533443633286 orientation 0.975372583648556 0.166870991961183 -0.139652071721026 0.0360512686691699 velocity 0.10044009989589 -0.508009613165237 0.0322834479486395 angularVelocity 61.7630837141469 -24.706390796162 14.6714956155641 force 0 0 -0.028998163475865 torque 0 0 0 radius 0.00706873885815149 invMass 337.952436476071
BaseParticle id 65 indSpecies 0 position 0.0353453039944822 0.0864410929202902 0.41816015882658 orientation 0.992465193947094 0.0707796683659765 -0.0884219596933381 -0.0467400726737813 velocity -0.129085910189576 -0.108355728476799 -0.133671669140012 angularVelocity 17.2619719347092 -27.396170312569 -11.0850005171308 force -1.96712529639523 5.16399404370366 0.400368336455619 torque -0.00703203138409656 0.0032799807397881 -0.00287020118441321 radius 0.00934740409315805 invMass 146.153204311797
BaseParticle id 66 indSpecies 0 position 0.0687852639046917 0.0599717466552717 0.411778235439677 orientation 0.998610313971902 -0.00705252146066873 0.00898077241253249 0.0514494751854749 velocity -0.222304245459207 -0.393260240471403 -0.575247076550196 angularVelocity -6.65658051988948 8.47657607682856 48.5610112905199 force 0 0 -0.0282679852257719 torque 0 0 0 radius 0.0070089031411252 invMass 346.681941487126
BaseParticle id 67 indSpecies 0 position 0.0635086188545601 0.0417503620919196 0.413140014406503 orientation 0.999768441280351 -0.0177610725159098 0.0119781766209219 -0.00203258647522386 velocity -0.514666064968002 0.0355403484886572 -0.87496052201415 angularVelocity -21.0538584011178 14.1919349573548 -2.24193046306419 force 0 0 -0.0513042526045824 torque 0 0 0 radius 0.00854941164092216 invMass 191.017303683022
BaseParticle id 68 indSpecies 0 position 0.0504347680264414 0.0301945060053761 0.406899912886454 orientation 1 0 0 0 velocity -0.241770836299499 0 -1.02028395872054 angularVelocity 0 0 0 force 0 0 -0.023782995273206 torque 0 0 0 radius 0.00661668748723651 invMass 412.059115659023
BaseParticle id 69 indSpecies 0 position 0.0354979622977149 0.0368918756942136 0.415661764210073 orientation 0.999999999590215 1.32114963562488e-05 -7.66028111695071e-06 -2.42145930431201e-05 velocity 0.106310568269929 0.0537432106063709 -0.122014262512826 angularVelocity 0.897552492891057 -0.514541951188754 -1.65251006353059 force 2.19430892305299 2.62476076695611 -0.155282831561327 torque 0.000689907369771745 -0.00038907762186987 -0.00128802684526294 radius 0.00636372185092073 invMass 463.177898575106
BaseParticle id 70 indSpecies 0 position 0.0325244046899495 0.0556281164472627 0.410135171316224 orientation 1 0 0 0 velocity 0.172586624349853 0 -0.770411658179396 angularVelocity 0 0 0 force 0 0 -0.0326278877696471 torque 0 0 0 radius 0.00735215678312615 invMass 300.356555998599
BaseParticle id 71 indSpecies 0 position 0.0401235891321777 0.0691787508969196 0.417613300079815 orientation 0.999999917370858 9.13424103125767e-05 -0.000254647354203555 -0.000303429673678974 velocity -0.359730343208018 -0.172307103571438 -0.164312399305615 angularVelocity 1.85107613456749 -5.02673240326371 -6.24415254083172 force 1.96712529639523 -5.16399404370366 -0.520144365649836 torque 0.00178722099285471 -0.0044377131371216 -0.00641195249460796 radius 0.00862750913330586 invMass 185.876767767566
BaseParticle id 72 indSpecies 0 position 0.0743449853733662 0.0851033024756149 0.427912851810378 orientation 1 0 0 0 velocity 0.516575975793809 0 -0.866052492511243 angularVelocity 0 0 0 force 0 0 -0.0185131559067306 torque 0 0 0 radius 0.00608665369070447 invMass 529.353290674615
BaseParticle id 73 indSpecies 0 position 0.0853029659703216 0.0720357597822118 0.434228917258237 orientation 0.998907480698067 -0.00316041425905264 0.0465049521710328 -0.00333859412370561 velocity 0.292807645997983 0.14695435243033 -0.678526760571289 angularVelocity -2.29028659023524 17.112299019871 -2.4489486549416 force 0 0 -0.0435634127565841 torque 0 0 0 radius 0.0080957869644316 invMass 224.959418463349