restart_version 1.0 name HourGlass3DSelfTest
dataFile    fileType ONE_FILE saveCount 500 counter 5 lastSavedTimeStep 1673
fStatFile   fileType ONE_FILE saveCount 500 counter 5 lastSavedTimeStep 1673
eneFile     fileType ONE_FILE saveCount 500 counter 5 lastSavedTimeStep 1673
restartFile fileType ONE_FILE saveCount 500 counter 5 lastSavedTimeStep 1673
statFile    fileType ONE_FILE saveCount 500 counter 0
interactionFile fileType NO_FILE saveCount 0 counter 0
xMin 0 xMax 0.1 yMin 0 yMax 0.1 zMin 0 zMax 0.6
timeStep 5.97983663675478e-06 time 0.0100042666932903 ntimeSteps 1673 timeMax 0.01
systemDimensions 3 particleDimensions 3 gravity 0 0 -9.8 writeVTK 1 ONE_FILE NO_FILE random  0 1103515245 12345 1073741824 607 273 784607267 xBallsArguments -v0 -solidf
Species 1
LinearViscoelasticFrictionSpecies id 0 density 2000 stiffness 100000 dissipation 0.63 slidingStiffness 12000 slidingDissipation 0.063 slidingFrictionCoefficient 0.5 slidingFrictionCoefficientStatic 0.5 rollingStiffness 12000 rollingDissipation 0.063 rollingFrictionCoefficient 0.2 rollingFrictionCoefficientStatic 0.2 torsionStiffness 12000 torsionDissipation 0 torsionFrictionCoefficient 0.1 torsionFrictionCoefficientStatic 0.1
Walls 3
AxisymmetricIntersectionOfWalls id 0 indSpecies 0 position 0.05 0.05 0 orientation 0.707106781186548 0 -0.707106781186548 0 velocity 0 0 0 angularVelocity 0 0 0 force -13.0488521462813 -11.9325952407689 -4.96342218078814 torque 5.88472386253572 -8.76102321255717 0.154520721676286 numIntersectionOfWalls 1 position 0.05 0 0 orientation 1 0 -0 0
AxisymmetricIntersectionOfWalls id 1 indSpecies 0 position 0.05 0.05 0 orientation 0.707106781186548 0 -0.707106781186548 0 velocity 0 0 0 angularVelocity 0 0 0 force 0 0 0 torque 0 0 0 numIntersectionOfWalls 2 position 0.05 0 0.35 orientation 0.97324898946773 0 0.229752920547361 0 position 0.025 0 0.3 orientation 0.97324898946773 0 -0.229752920547361 0
InfiniteWall id 2 indSpecies 0 position 0 0 0.3 orientation 0.707106781186548 0 0.707106781186548 0 velocity 0 0 0 angularVelocity 0 0 0 force 0 0 0 torque 0 0 0
Boundaries 0
Particles 612
BaseParticle id 0 indSpecies 0 position 0.0681799020971867 0.0851292447687237 0.351852834899353 orientation 0.999999368081068 -0.000178796799169456 -0.00105463637137575 -0.000345848657410182 velocity -0.285920381502177 0.170032096252658 -0.63797084330776 angularVelocity -2.96456365379512 -14.7522583298878 -4.97819536595552 force -2.22149773451176 1.61593199491942 0.223744583277403 torque -0.00161615482091456 -0.0044908092369895 -0.00176958418794754 radius 0.00771853391666102 invMass 259.583416703278
BaseParticle id 1 indSpecies 0 position 0.0784784312170327 0.0719209141656819 0.355214322663171 orientation 0.999884923200661 0.00329434990161585 0.00422081236427664 0.0141940958753583 velocity -0.266457805968931 0.0354451648679465 -0.462995078380966 angularVelocity -4.02655503249938 -0.499532744242262 2.31941860300123 force 2.22149773451176 -1.61593199491942 -0.329481696887089 torque -0.00726972465590207 -0.00566976659906734 -0.0109309696180236 radius 0.0093904849035754 invMass 144.150893457167
BaseParticle id 2 indSpecies 0 position 0.088174806802614 0.0528294880667081 0.354542411040598 orientation 1 0 0 0 velocity -0.172425697397044 0 -0.21154501535322 angularVelocity 0 0 0 force 0 0 -0.0192686269532034 torque 0 0 0 radius 0.0061683455666822 invMass 508.598771661348
BaseParticle id 3 indSpecies 0 position 0.0807107060501016 0.0333541265381143 0.353616640146345 orientation 1 0 0 0 velocity -0.565877659650634 0 -0.326964308068208 angularVelocity 0 0 0 force 0 0 -0.0214944678770018 torque 0 0 0 radius 0.00639726005830126 invMass 455.931268272317
BaseParticle id 4 indSpecies 0 position 0.0707923130737814 0.0179542553781227 0.349387009052656 orientation 1 0 0 0 velocity -0.314523071689044 0 -0.964383027414268 angularVelocity 0 0 0 force 0 0 -0.051216524711782 torque 0 0 0 radius 0.00854453582824717 invMass 191.344493894284
BaseParticle id 5 indSpecies 0 position 0.0487472579286071 0.00997097180334742 0.356330682408692 orientation 0.999174632873331 -0.0375754307488287 -0.00870461063887305 -0.0127424401159748 velocity -0.23738223892301 -0.180552430505686 -0.646174920456729 angularVelocity -32.4970183862794 14.149293437058 -14.8156551443472 force 0 0 -0.048364324814171 torque 0 0 0 radius 0.00838288450764224 invMass 202.628694552323
BaseParticle id 6 indSpecies 0 position 0.0334176605592387 0.0115507973244515 0.351411146266438 orientation 0.99674032699297 -0.0182350227592808 -0.0697170418538021 -0.0362731107857011 velocity -0.343307191740203 -0.381523536999713 -0.640265098681455 angularVelocity -14.4608646775116 -53.4800768949881 -26.5052117343514 force 0 0 -0.0353278101342513 torque 0 0 0 radius 0.00754960122187659 invMass 277.401853179081
BaseParticle id 7 indSpecies 0 position 0.0239369777640938 0.0252106076457796 0.349115801184872 orientation 0.995844866091849 0.00765625466624453 -0.0499879541450678 -0.0757336707375535 velocity -0.122909682851106 0.529320339542159 -0.959495179030651 angularVelocity 5.85625216878285 -39.5296684729227 -60.4877480908306 force 0 0 -0.039180942478349 torque 0 0 0 radius 0.00781465961242592 invMass 250.121599433586
BaseParticle id 8 indSpecies 0 position 0.0164046350416795 0.0415681680227688 0.352136560171725 orientation 1 0 0 0 velocity 0.550349157722342 0 -0.520949825024258 angularVelocity 0 0 0 force 0 0 -0.0264795793779703 torque 0 0 0 radius 0.00685786292994594 invMass 370.096513245717
BaseParticle id 9 indSpecies 0 position 0.00834008209700163 0.0611596025453132 0.351658091728312 orientation 0.999516387061871 -0.0184454926032252 0.0247428862449437 -0.00381384027952811 velocity 0.346727660116381 -0.163362105005183 -0.351944248577313 angularVelocity -34.4597232640308 43.2324039295498 -6.49302728558141 force 0 0 -0.0229309670216185 torque 0 0 0 radius 0.00653671017611706 invMass 427.369678337634
BaseParticle id 10 indSpecies 0 position 0.022593734076094 0.075455432863746 0.351542250955929 orientation 0.990295110616096 0.00743729494592237 -0.0570061338989987 0.12653292548436 velocity -0.638790582956882 -0.240260058406862 -0.738563430425451 angularVelocity -7.6512471865407 -13.1036464130414 16.176613618005 force 0 0 -0.0523387785257505 torque 0 0 0 radius 0.00860649460311374 invMass 187.241664326928
BaseParticle id 11 indSpecies 0 position 0.0415902367849047 0.0896827516106618 0.354473294034872 orientation 0.991261965755813 0.0496816343994623 0.0417809967045227 0.114829433350928 velocity 0.660115925225543 -0.337967470575021 -0.316470405609954 angularVelocity 3.40599700807329 42.950258112559 2.91587725001216 force 0 0 -0.0394653433122763 torque 0 0 0 radius 0.0078335220126123 invMass 248.319137184639
BaseParticle id 12 indSpecies 0 position 0.0662137384227025 0.0599167216229141 0.353453040120523 orientation 0.997505314151372 0.0281297279945497 0.01676098927461 0.0625374758145983 velocity -0.475574313317588 -0.363153295053931 -1.16734287824605 angularVelocity 23.2923175966519 13.591863331442 50.1063918300349 force 0 0 -0.0261963869130726 torque 0 0 0 radius 0.00683332754593964 invMass 374.097391083714
BaseParticle id 13 indSpecies 0 position 0.0621756281699154 0.0416910919055886 0.355208418578121 orientation 1 0 0 0 velocity -0.602515643832725 0 -0.264105156614366 angularVelocity 0 0 0 force 0 0 -0.03273480592034 torque 0 0 0 radius 0.00736017877481861 invMass 299.375533914826
BaseParticle id 14 indSpecies 0 position 0.053887872014282 0.0277964611366824 0.356780230725627 orientation 0.988401910300575 -0.0301405409711195 -0.116798956113597 -0.0922562483245308 velocity 0.319379533217434 -0.310194365777362 -0.220197311732115 angularVelocity -7.82029836574118 -30.5861632647162 -24.121327964903 force 0 0 -0.0467272709842905 torque 0 0 0 radius 0.00828721448193564 invMass 209.727634282232
BaseParticle id 15 indSpecies 0 position 0.0329110362995382 0.0387590039594887 0.353865733273977 orientation 0.992798348192503 -0.0451915049363443 -0.0831406697365137 -0.0734628936510779 velocity -0.365374555645353 0.241716669468548 -0.5467913546829 angularVelocity -11.8570739089146 -21.7204229979437 -19.2156322027879 force 0 0 -0.0599649838769803 torque 0 0 0 radius 0.00900570424366211 invMass 163.428710663959
BaseParticle id 16 indSpecies 0 position 0.0233686168198776 0.0556281164472627 0.350146958593953 orientation 1 0 0 0 velocity -0.742601679877749 0 -0.697096852732565 angularVelocity 0 0 0 force 0 0 -0.023932067362548 torque 0 0 0 radius 0.00663048319459848 invMass 409.49241248319
BaseParticle id 17 indSpecies 0 position 0.0395945808677043 0.0676550026936477 0.352629647980897 orientation 0.996615312640157 0.0524922894633051 -0.0625144939455122 0.00971680013169534 velocity 0.315466313923086 -0.477388125655996 -0.513187673981381 angularVelocity 32.5796594800197 -39.1125852027971 6.00834853768974 force 0 0 -0.030959794038036 torque 0 0 0 radius 0.00722466632982281 invMass 316.539573485538
BaseParticle id 18 indSpecies 0 position 0.070859530571567 0.0851033024756149 0.37019834923411 orientation 1 0 0 0 velocity 0.168179145857525 0 -0.818533773567795 angularVelocity 0 0 0 force 0 0 -0.0404288783023133 torque 0 0 0 radius 0.00789676117720384 invMass 242.400986906413
BaseParticle id 19 indSpecies 0 position 0.083913641568271 0.0695124834180589 0.377734242074157 orientation 0.983142080372499 -0.0750319310152188 -0.164594502666589 0.0266553713329925 velocity 0.0788099220931731 -0.110942547429327 -0.148465748232943 angularVelocity 2.40939321171561 -57.7372346116724 4.73843280816686 force 0 0 -0.0616839748950756 torque 0 0 0 radius 0.00909094904820346 invMass 158.874327030153
BaseParticle id 20 indSpecies 0 position 0.0901739401625632 0.0524325761644627 0.37008846807086 orientation 0.970276561455889 -0.205185566359777 -0.128039731673358 0.00825256081273901 velocity -0.745673417808528 -0.0788680965345786 -0.500988878290286 angularVelocity -83.4273712026851 -51.2476144073758 3.12548287937301 force 0 0 -0.0192017663251782 torque 0 0 0 radius 0.00616120273977406 invMass 510.369714641814
BaseParticle id 21 indSpecies 0 position 0.0889812028786446 0.0338997963794058 0.375705469931547 orientation 0.999701965437116 0.00843742893298085 -0.0227886283522166 0.00233848497799644 velocity 0.63834406809746 0.59501314485102 -0.215711758336487 angularVelocity 19.6345216484854 -50.6273135191879 5.3449352603978 force 0 0 -0.0318905069493773 torque 0 0 0 radius 0.00729634869350461 invMass 307.301480517586
BaseParticle id 22 indSpecies 0 position 0.0791009573793759 0.0210715730861018 0.373083886205443 orientation 0.986742749142285 0.0515071476548874 -0.110106781430471 0.107527937944544 velocity 0.476776983146057 0.106341612527431 -0.725647497399943 angularVelocity 18.3019110565695 -28.4434712988019 11.641947494106 force 0 0 -0.0545100601213286 torque 0 0 0 radius 0.00872389962643022 invMass 179.783327668088
BaseParticle id 23 indSpecies 0 position 0.0561349949670594 0.0118365918134734 0.373224742325187 orientation 0.993428281338506 -0.112380959470123 -0.00832002505115485 -0.0200386368934097 velocity -0.086448887731485 0.275123317248591 -0.310476932220077 angularVelocity -29.2850080743062 9.87486474012439 -5.11927881492789 force 0 0 -0.0711805763711037 torque 0 0 0 radius 0.00953540052516814 invMass 137.678008518886
BaseParticle id 24 indSpecies 0 position 0.0334125297060224 0.0125417325083682 0.375082044680872 orientation 1 0 0 0 velocity -0.255505102448626 0 -0.310805394821069 angularVelocity 0 0 0 force 0 0 -0.0374961910304982 torque 0 0 0 radius 0.00770100651523005 invMass 261.359880315017
BaseParticle id 25 indSpecies 0 position 0.0148640386361253 0.0241239497810567 0.371616872460076 orientation 0.99978387700239 0.00601777553884321 0.0185852991827873 0.00711142165254645 velocity 0.205113215856242 0.396757399810985 -0.322320775988588 angularVelocity 21.2836202303374 56.0074452724595 20.1758139294422 force 0 0 -0.0194401287153561 torque 0 0 0 radius 0.00618659213540462 invMass 504.11188853183
BaseParticle id 26 indSpecies 0 position 0.0141029166501959 0.0437237253541283 0.370653833888287 orientation 0.926911957976328 0.297029359317114 0.227856524982536 0.0262523501241029 velocity -0.204364591815018 0.621419881665891 -0.50112161264483 angularVelocity 22.749787846379 22.1291983631473 -51.115182826945 force 0 0 -0.0383921582964037 torque 0 0 0 radius 0.00776186257064169 invMass 255.260460335151
BaseParticle id 27 indSpecies 0 position 0.0121423970023133 0.059519651974014 0.370707865700729 orientation 0.960384978672864 -0.205327422862953 0.185354771076346 -0.0338371245707507 velocity 0.675416019432596 -0.315010899750321 -0.534136217932375 angularVelocity -72.5646266306018 64.8312956060582 -11.6189040755764 force 0 0 -0.0271925635019506 torque 0 0 0 radius 0.00691886978138343 invMass 360.392649236509
BaseParticle id 28 indSpecies 0 position 0.0260731620402519 0.0783467909716504 0.37420164780755 orientation 0.982192323512142 0 -0.187878257480261 0 velocity 0.419753558941488 0 -0.639777958099576 angularVelocity 0 -40.9443610506932 0 force 0 0 -0.0783209742070714 torque 0 0 0 radius 0.00984414042174431 invMass 125.126124888206
BaseParticle id 29 indSpecies 0 position 0.0470286061180648 0.0884068114660146 0.371990272868578 orientation 1 0 0 0 velocity 0.820172662082899 0 -0.631854340641728 angularVelocity 0 0 0 force 0 0 -0.0392778035727001 torque 0 0 0 radius 0.00782109397852691 invMass 249.504786637597
BaseParticle id 30 indSpecies 0 position 0.0711652887915794 0.0594145616102647 0.369475810966512 orientation 0.998331910460968 0.0314677541200133 -0.0470018637405961 -0.0115759151217557 velocity 0.0833696722823314 -0.401172979243897 -0.452257799214472 angularVelocity 18.5166295566169 -9.11410180500452 -10.7343323452972 force 0 0 -0.0423958324814696 torque 0 0 0 radius 0.00802280362879596 invMass 231.154795799408
BaseParticle id 31 indSpecies 0 position 0.0672649109614345 0.0416910919055886 0.375210403713407 orientation 1 0 0 0 velocity -0.09380441615935 0 -0.514866825509931 angularVelocity 0 0 0 force 0 0 -0.0789602303276007 torque 0 0 0 radius 0.0098708505221914 invMass 124.113113137341
BaseParticle id 32 indSpecies 0 position 0.0435570575486159 0.0301945060053761 0.370075301072087 orientation 1 0 0 0 velocity -0.92924855842325 0 -0.771422981362229 angularVelocity 0 0 0 force 0 0 -0.0319699726584315 torque 0 0 0 radius 0.00730240408582389 invMass 306.537640951514
BaseParticle id 33 indSpecies 0 position 0.0272154853051038 0.03675680991872 0.3698050660207 orientation 0.999931767377003 0.00707222793381335 -0.00162339759971814 -0.0091547125890504 velocity 0.594967996235103 -0.4564620430098 -0.972884135735195 angularVelocity 50.8772198323071 -11.5082009307665 -75.0337756976802 force 0 0 -0.0284969184466037 torque 0 0 0 radius 0.00702777323403603 invMass 343.89683285801
BaseParticle id 34 indSpecies 0 position 0.0300794807792223 0.0556281164472627 0.374621594442554 orientation 1 0 0 0 velocity -0.0718014938088123 0 -0.381319726327155 angularVelocity 0 0 0 force 0 0 -0.0411898715314077 torque 0 0 0 radius 0.00794600045499764 invMass 237.922567748904
BaseParticle id 35 indSpecies 0 position 0.0440045681133122 0.0691961561590291 0.374373184691262 orientation 1 0 0 0 velocity -0.0346594890256791 0 -0.407078136175817 angularVelocity 0 0 0 force 0 0 -0.0413344212636956 torque 0 0 0 radius 0.00795528470542721 invMass 237.0905337583
BaseParticle id 36 indSpecies 0 position 0.0647943328594824 0.0851033024756149 0.392897540732411 orientation 1 0 0 0 velocity -0.438081952335237 0 -0.663777432582381 angularVelocity 0 0 0 force 0 0 -0.0608083792364928 torque 0 0 0 radius 0.00904772896780844 invMass 161.161999761354
BaseParticle id 37 indSpecies 0 position 0.0816941025745922 0.0716120922347256 0.396027586416735 orientation 1 0 0 0 velocity -0.196389888230348 0 -0.180547267826714 angularVelocity 0 0 0 force 0 0 -0.0325115911637694 torque 0 0 0 radius 0.00734341120967324 invMass 301.430955828487
BaseParticle id 38 indSpecies 0 position 0.0813709859827783 0.0534655656209063 0.393779139460637 orientation 0.9994618558125 0.0101821773140024 0.0156382154609202 0.0269771803229425 velocity -0.242607928563072 0.641133109737442 -0.330991733978943 angularVelocity 20.6573370397906 31.7501899884629 55.8383305522279 force 0 0 -0.0215201593209027 torque 0 0 0 radius 0.00639980783648807 invMass 455.386963166263
BaseParticle id 39 indSpecies 0 position 0.0857451011170878 0.0332004717544057 0.39150403070629 orientation 0.999635759564457 0.00340779450028914 0.0107199020932134 -0.0245319961631168 velocity 0.597958989119918 0.253145922126996 -0.528737028503527 angularVelocity -4.95013361322279 8.75995683019166 -55.4724386517398 force 0 0 -0.0284519924667154 torque 0 0 0 radius 0.00702407814839475 invMass 344.439849387158
BaseParticle id 40 indSpecies 0 position 0.0782075400907874 0.0209949208641927 0.389989103576251 orientation 0.981664763198082 -0.0459717346420927 -0.171353081909943 -0.0697066254327046 velocity -0.222514111287297 0.126754810176992 -0.52346293714558 angularVelocity -30.0361019034545 -36.4128145604485 -58.050423500271 force 0 0 -0.0319188087257937 torque 0 0 0 radius 0.00729850647850101 invMass 307.029002372529
BaseParticle id 41 indSpecies 0 position 0.0584528566990979 0.0104870681711576 0.395668167741984 orientation 0.993204125402529 -0.0124440436888554 -0.115279418909237 -0.0100680999208221 velocity 0.327817722975589 0.185618943005239 -0.396434145357421 angularVelocity -9.02541402043594 -14.2510668908358 -12.2639009942286 force 0 0 -0.0712621603282968 torque 0 0 0 radius 0.0095390421491684 invMass 137.520388869107
BaseParticle id 42 indSpecies 0 position 0.0409865331773196 0.0127410323783604 0.389473474135105 orientation 0.997783761250354 0.0293811272383421 -0.0597015751751604 -0.000192532870085958 velocity 0.170101500116677 0.053247202255724 -0.952451887068281 angularVelocity 15.7683952520986 -32.2931275273324 -0.167911043572063 force 0 0 -0.038622593181722 torque 0 0 0 radius 0.00777736085115246 invMass 253.737493852117
BaseParticle id 43 indSpecies 0 position 0.0274491616819281 0.0221887391370754 0.397257055843704 orientation 0.993756043218126 -0.0178722449392907 0.0384435981084735 0.103206585026146 velocity 0.657868315002405 -0.257113170278531 -0.336644035808976 angularVelocity -10.3248877149277 14.5941766278777 32.6273289997628 force 0 0 -0.0712694225540865 torque 0 0 0 radius 0.00953936617491826 invMass 137.506375789179
BaseParticle id 44 indSpecies 0 position 0.0166858870434683 0.0408750591617573 0.39350736456123 orientation 0.998539007649073 0.0143155811072524 0.0516852603796645 0.00659910601926503 velocity 0.584511053856058 -0.323137416665309 -0.730630458220444 angularVelocity 13.9645530839818 6.64385769886645 5.68322533489224 force 0 0 -0.0784529375282988 torque 0 0 0 radius 0.00984966612993771 invMass 124.915654005499
BaseParticle id 45 indSpecies 0 position 0.0171654820539149 0.0606581335734683 0.395023575720254 orientation 0.998896267732469 0.03567037694614 0.0234771164095227 0.0195626052395209 velocity 0.481912256418722 0.00847630311953074 -0.468332463015729 angularVelocity 16.6323717315333 16.5808854453902 7.13633555615373 force 0 0 -0.0674127358851821 torque 0 0 0 radius 0.00936409384443975 invMass 145.373123806923
BaseParticle id 46 indSpecies 0 position 0.0191020451278285 0.0788043942677284 0.393263735144239 orientation 0.96891075435675 0.145930609991052 -0.192736340158739 0.0526204365402597 velocity 0.090237425754712 0.217687166660343 -0.979089000549624 angularVelocity 64.081149777203 -23.5459480581854 44.1992218373628 force 0 0 -0.0372778247325888 torque 0 0 0 radius 0.00768602796859478 invMass 262.890876018114
BaseParticle id 47 indSpecies 0 position 0.0295214817536562 0.0884068114660146 0.390319527190555 orientation 1 0 0 0 velocity -0.929793117633282 0 -0.653263297119697 angularVelocity 0 0 0 force 0 0 -0.0211662310650583 torque 0 0 0 radius 0.00636452921073462 invMass 463.001654374739
BaseParticle id 48 indSpecies 0 position 0.0654221333771271 0.0608198624998386 0.394104340256603 orientation 1 0 0 0 velocity -0.140969443003676 0 -0.463060586146972 angularVelocity 0 0 0 force 0 0 -0.046042006749344 torque 0 0 0 radius 0.00824650363042345 invMass 212.84910654203
BaseParticle id 49 indSpecies 0 position 0.073933716983076 0.0415723670636321 0.394045782502506 orientation 0.999894948458637 0.00130239792764723 0.00365417064224311 0.0139657740012881 velocity -0.352874583649952 -0.203570946513376 -0.306670533121819 angularVelocity 0.261696269171073 1.65099299150706 39.0727295899592 force 0 0 -0.0282725243311161 torque 0 0 0 radius 0.00700927827040732 invMass 346.626282295364
BaseParticle id 50 indSpecies 0 position 0.0628232439670302 0.0301945060053761 0.389058183701829 orientation 1 0 0 0 velocity 0.996548404920335 0 -0.915894086415811 angularVelocity 0 0 0 force 0 0 -0.0379303349388315 torque 0 0 0 radius 0.0077306141799962 invMass 258.368401328489
BaseParticle id 51 indSpecies 0 position 0.0337496761230164 0.0424223270715503 0.392592286988638 orientation 0.933331075664903 -0.0122274374549622 0.0835114330050179 0.348954772898907 velocity 0.292152893674961 0.89956438421829 -0.522136098158167 angularVelocity -4.09344500781758 27.800225027128 116.454495977504 force 0 0 -0.0227970282432885 torque 0 0 0 radius 0.00652395843665678 invMass 429.88059212872
BaseParticle id 52 indSpecies 0 position 0.0330922084807208 0.0556281164472627 0.390144904768366 orientation 1 0 0 0 velocity 0.229342787312956 0 -0.66449373046898 angularVelocity 0 0 0 force 0 0 -0.0205510222804866 torque 0 0 0 radius 0.00630225903885229 invMass 476.861922791314
BaseParticle id 53 indSpecies 0 position 0.0431740995390326 0.0691961561590291 0.390234158357139 orientation 1 0 0 0 velocity -0.117670928018474 0 -0.704148769518986 angularVelocity 0 0 0 force 0 0 -0.0256811668117603 torque 0 0 0 radius 0.00678823221401476 invMass 381.602598971953
BaseParticle id 54 indSpecies 0 position 0.0655564467506916 0.0851033024756149 0.41358236373952 orientation 1 0 0 0 velocity -0.361903066409842 0 -0.479632216855313 angularVelocity 0 0 0 force 0 0 -0.0403299386418159 torque 0 0 0 radius 0.00789031412648939 invMass 242.995658561179
BaseParticle id 55 indSpecies 0 position 0.0782463173200453 0.0723235733714872 0.410919049564698 orientation 0.99900273754321 -0.00606209331283245 0.007507817191641 0.0435937390786359 velocity -0.190778508007904 0.329904510953917 -0.697157787618027 angularVelocity -5.74152018066523 7.09619198858058 41.2469437530721 force 0 0 -0.033696643419574 torque 0 0 0 radius 0.00743157138542126 invMass 290.830154148449
BaseParticle id 56 indSpecies 0 position 0.0859544831105528 0.0552401935305436 0.412929705199775 orientation 0.973808121566225 -0.158876361404915 -0.159228681490173 0.033200469112607 velocity -0.514538872298514 0.376460006110454 -0.660803537076448 angularVelocity -30.7772830218717 -34.226815802825 9.98767460666647 force 0 0 -0.0694930912882102 torque 0 0 0 radius 0.00945944486236251 invMass 141.021212588691
BaseParticle id 57 indSpecies 0 position 0.0825338698791351 0.0336247438062184 0.413506701440284 orientation 0.963100305752934 0.0714287402757607 -0.259408139766235 0.00656910528497143 velocity -0.55208021047814 -0.0687645062759598 -0.607399388058067 angularVelocity 10.8366646699404 -61.6993294620596 3.78255596416393 force 0 0 -0.0712367422495769 torque 0 0 0 radius 0.00953790787277938 invMass 137.56945770577
BaseParticle id 58 indSpecies 0 position 0.0685681473543206 0.0190015308036332 0.414053672185219 orientation 0.996086611605275 -0.058901633692763 0.0338696389253198 0.0565235109323076 velocity -0.0773339941657231 0.266207311511438 -0.508517235195912 angularVelocity -30.2433241329628 17.6344151299832 29.1901698107381 force 0 0 -0.0596401880531363 torque 0 0 0 radius 0.00898941522558274 invMass 164.318730706696
BaseParticle id 59 indSpecies 0 position 0.0532156537411603 0.00814016548889408 0.416749026500776 orientation 0.997920091294571 0.00704422888959803 -0.0528126642548868 0.0362862608198545 velocity 0.287214598010397 -0.53243040358896 -0.122855145930229 angularVelocity 12.5316143016069 -2.47198357905677 1.71334845218753 force -0.985682510512727 7.42222103516309 0.332345248195439 torque -0.0100036134473773 0.0113600911013942 -0.00464913543224853 radius 0.00808807759537541 invMass 225.603310206918
BaseParticle id 60 indSpecies 0 position 0.0359692782179652 0.0115040117664916 0.415983124971313 orientation 0.998678201665898 -0.0196404441651679 -0.0243222576029192 -0.040798655069263 velocity -0.773176915852942 -0.361021105511685 -0.155720324901451 angularVelocity -52.5949150890246 -7.50559119416658 -5.70205441746269 force 0 0 -0.0345657842686501 torque 0 0 0 radius 0.00749492419744383 invMass 283.517362830047
BaseParticle id 61 indSpecies 0 position 0.0267409765643435 0.0252556471197823 0.415395412258356 orientation 0.99802624770074 0.000789911102872702 0.00364144902705059 -0.0626875170174569 velocity 0.144646816784603 0.451032834152214 -0.212423314355223 angularVelocity 2.69985409415952 -1.16427332985267 -42.8256749431509 force -2.38357501903805 -2.86436228855709 -0.0277398506838675 torque -0.00119474954423841 -0.00253638828883145 0.00397650196225015 radius 0.00823771352112506 invMass 213.531200199721
BaseParticle id 62 indSpecies 0 position 0.019131858586809 0.0415681680227688 0.415009242874663 orientation 0.998614190557039 0 0.0526279243188378 0 velocity 0.798275817329238 0 -0.486933461308451 angularVelocity 0 14.9050932079107 0 force 0 0 -0.0763708859342431 torque 0 0 0 radius 0.00976175078399316 invMass 128.321151183685
BaseParticle id 63 indSpecies 0 position 0.0131572662517758 0.061346487418529 0.413225839089467 orientation 1 0 0 0 velocity 0.151359143525959 0 -0.500943597735906 angularVelocity 0 0 0 force 0 0 -0.0381719525706411 torque 0 0 0 radius 0.00774699421436806 invMass 256.73300263758
BaseParticle id 64 indSpecies 0 position 0.0235424892306604 0.0750770738941984 0.410494982021664 orientation 0.975923773524849 0.185482300555506 -0.111934138593694 0.0252953170951402 velocity 0.114107706609815 -0.5539066505563 0.0149158950065461 angularVelocity 53.0155551316438 -26.7102438583198 -7.50136416255045 force 0 0 -0.028998163475865 torque 0 0 0 radius 0.00706873885815149 invMass 337.952436476071
BaseParticle id 65 indSpecies 0 position 0.0353821670619336 0.0864637600196494 0.418043657293133 orientation 0.996996242770399 0.0337445143413442 -0.0384788059873799 -0.0581307246072152 velocity -0.109583658244927 -0.135390088606058 -0.158142724418638 angularVelocity 9.11718050291045 -15.5733472941787 -13.5128585484609 force -1.78524048343067 5.05862977187383 0.218600229704873 torque -0.00393513350050881 0.00392843038336862 -0.000918980160717055 radius 0.00934740409315805 invMass 146.153204311797
BaseParticle id 66 indSpecies 0 position 0.068785263904728 0.0599717466552285 0.411778235439441 orientation 0.998610298007856 -0.00693560724054974 0.00911565049717998 0.0514419573974252 velocity -0.22230424544272 -0.393260240492414 -0.575247076670531 angularVelocity -6.53821288948379 8.61415720746829 48.5532212291568 force 0 0 -0.0282679852257719 torque 0 0 0 radius 0.0070089031411252 invMass 346.681941487126
BaseParticle id 67 indSpecies 0 position 0.0634917488766801 0.041730356321294 0.413148654298896 orientation 0.999744170475596 -0.0185084648125375 0.0128715384948504 -0.00183134571329574 velocity -0.524484953466861 0.0238375296146378 -0.869893591705805 angularVelocity -21.9988004969028 15.3303068045247 -1.98105532705813 force 0 0 -0.0513042526045824 torque 0 0 0 radius 0.00854941164092216 invMass 191.017303683022
BaseParticle id 68 indSpecies 0 position 0.0504347680264414 0.0301945060053761 0.406899912886454 orientation 1 0 0 0 velocity -0.241770836299499 0 -1.02028395872054 angularVelocity 0 0 0 force 0 0 -0.023782995273206 torque 0 0 0 radius 0.00661668748723651 invMass 412.059115659023
BaseParticle id 69 indSpecies 0 position 0.0354983880037673 0.036892408947514 0.415661836241128 orientation 0.999999999142065 2.72466737934458e-05 1.1169107733699e-05 -2.91331287379375e-05 velocity 0.115640404109752 0.0654808939517535 -0.119574333281516 angularVelocity 2.31336407212874 1.48738775147361 -1.83953507655956 force 2.38357501903805 2.86436228855709 -0.0393132588085521 torque 0.00216915071523716 0.00174235521865424 -0.00132380623963737 radius 0.00636372185092073 invMass 463.177898575106
BaseParticle id 70 indSpecies 0 position 0.0325244046899495 0.0556281164472627 0.410135171316224 orientation 1 0 0 0 velocity 0.172586624349853 0 -0.770411658179396 angularVelocity 0 0 0 force 0 0 -0.0326278877696471 torque 0 0 0 radius 0.00735215678312615 invMass 300.356555998599
BaseParticle id 71 indSpecies 0 position 0.0401210489405282 0.069185123035272 0.417614098050763 orientation 0.999999966557115 4.21826977643382e-05 -0.000165397611796758 -0.000194293641256769 velocity -0.377310477125161 -0.132096993379686 -0.157316669851542 angularVelocity 1.01612068266039 -3.96471108328114 -4.76424830597009 force 1.78524048343067 -5.05862977187383 -0.338376258899091 torque 0.00117241749109499 -0.00451524039720622 -0.00595529312584348 radius 0.00862750913330586 invMass 185.876767767566
BaseParticle id 72 indSpecies 0 position 0.0743449853733662 0.0851033024756149 0.427912851810378 orientation 1 0 0 0 velocity 0.516575975793809 0 -0.866052492511243 angularVelocity 0 0 0 force 0 0 -0.0185131559067306 torque 0 0 0 radius 0.00608665369070447 invMass 529.353290674615
BaseParticle id 73 indSpecies 0 position 0.085303539349525 0.0720339178384551 0.434241401634577 orientation 0.998993845220383 -0.00692969845631397 0.0441905275712568 -0.00323631952560377 velocity 0.293017126343569 0.146288857922684 -0.674043010083001 angularVelocity -4.8839697663008 15.5558240812324 -2.30250237199862 force 0 0 -0.0435634127565841 torque 0 0 0 radius 0.0080957869644316 invMass 224.959418463349