restart_version 1.0 name LeesEdwardsSelfTest
dataFile    fileType ONE_FILE saveCount 100 counter 42 lastSavedTimeStep 4001
fStatFile   fileType ONE_FILE saveCount 100 counter 42 lastSavedTimeStep 4001
eneFile     fileType ONE_FILE saveCount 100 counter 42 lastSavedTimeStep 4001
restartFile fileType ONE_FILE saveCount 100 counter 42 lastSavedTimeStep 4001
statFile    fileType ONE_FILE saveCount 100 counter 0
interactionFile fileType NO_FILE saveCount 0 counter 0
xMin 0 xMax 15 yMin 0 yMax 15 zMin 0 zMax 1
timeStep 0.001 time 4.00099999999967 ntimeSteps 4001 timeMax 4
systemDimensions 2 particleDimensions 2 gravity 0 0 0 writeVTK 0 NO_FILE NO_FILE random  0 1103515245 12345 1073741824 607 273 784607267 xBallsArguments -w0 -v0 -solidf -cmode 5
Species 1
LinearViscoelasticSlidingFrictionSpecies id 0 density 1.27323954473516 stiffness 1974.4470806277 dissipation 1.02586588775104 slidingStiffness 564.127737322199 slidingDissipation 0.293104539357432 slidingFrictionCoefficient 0.5 slidingFrictionCoefficientStatic 0.5
Walls 0
Boundaries 1
LeesEdwardsBoundary id 0 left 0 right 15 down 0 up 15 shift 60.0149999999951 vel 15
Particles 233
BaseParticle id 0 indSpecies 0 position 4.17400262138846 6.20953758829283 0 orientation -0.381412622085352 0 0 0.92440489598118 velocity -0.459506064839255 2.08878043434297 0 angularVelocity 0 0 2.89211749622312 force 0 0 0 torque 0 0 0 radius 0.6 invMass 0.694444444444444
BaseParticle id 1 indSpecies 0 position 1.45072344459108 10.4053376469542 0 orientation 0.55825842927384 0 0 -0.829667117671121 velocity 1.46657241354665 1.11153086181576 0 angularVelocity 0 0 0.0548581846510544 force 10.7884635410241 93.2944441692249 0 torque 0 0 1.33656251483147 radius 0.490310205248827 invMass 1.03991571996395
BaseParticle id 2 indSpecies 0 position 14.6198297204859 12.3681354144577 0 orientation 0.153234583923467 0 0 0.988189841219693 velocity 5.22767279172971 -0.636314463810488 0 angularVelocity 0 0 0.789194827759208 force 14.8430555427794 -46.6792326104752 0 torque 0 0 -7.16518759791914 radius 0.44318316686602 invMass 1.27283906432741
BaseParticle id 3 indSpecies 0 position 4.13058215473753 10.0425909243031 0 orientation -0.579821377908298 0 0 -0.814743622080297 velocity 0.640810616795931 0.353374083517154 0 angularVelocity 0 0 0.0789002649669603 force -7.59715128283125 34.886700600426 0 torque 0 0 4.56821897053447 radius 0.482757430260296 invMass 1.07270937199144
BaseParticle id 4 indSpecies 0 position 6.59843955998294 3.97540693547753 0 orientation -0.955677348452265 0 0 -0.294416041776342 velocity -4.05034116575117 0.597654023202589 0 angularVelocity 0 0 1.28579299951921 force -8.65796950656258 22.829626132053 0 torque 0 0 -6.4554304947802 radius 0.443412234034937 invMass 1.27152430434995
BaseParticle id 5 indSpecies 0 position 12.6624492820834 1.29544814334314 0 orientation -0.999151246074263 0 0 0.041192080164134 velocity -5.32554759469287 -2.55500903880364 0 angularVelocity 0 0 1.47918740558756 force 5.85550340892646 40.6929011967722 0 torque 0 0 6.60521151393008 radius 0.468547692831096 invMass 1.13876051783903
BaseParticle id 6 indSpecies 0 position 2.68223974404435 6.89227942226451 0 orientation 0.512386311106132 0 0 0.85875506880079 velocity -0.246752101546487 2.57298354932821 0 angularVelocity 0 0 3.89758004074082 force 58.6560332237191 -25.3472148185989 0 torque 0 0 9.45878436752653 radius 0.414542832398282 invMass 1.45479295011974
BaseParticle id 7 indSpecies 0 position 5.76696770432116 3.52267623003405 0 orientation -0.546829140051311 0 0 -0.837244224578912 velocity -5.43117006485587 0.352313763995596 0 angularVelocity 0 0 -0.695272649433578 force 5.53436656050568 26.2531334284628 0 torque 0 0 10.3528975702671 radius 0.478194994406593 invMass 1.09327635938494
BaseParticle id 8 indSpecies 0 position 5.75005673059313 9.23933998290277 0 orientation -0.523936997431549 0 0 -0.851757020941074 velocity -0.209199684877066 0.901254636576244 0 angularVelocity 0 0 0.254441407665332 force 6.18031121791341 4.49695604523636 0 torque 0 0 1.91006696802187 radius 0.560615155323767 invMass 0.795445337577875
BaseParticle id 9 indSpecies 0 position 4.60884112888949 9.14063108802351 0 orientation 0.929768661387549 0 0 0.36814431450398 velocity 0.671937025464678 1.4927070727586 0 angularVelocity 0 0 -0.666262059903109 force -4.11937413873866 -47.5884027872477 0 torque 0 0 7.8084990345171 radius 0.555034915772234 invMass 0.811520322433125
BaseParticle id 10 indSpecies 0 position 12.3636201446544 2.76843389855519 0 orientation -0.336044483021881 0 0 -0.941846115578631 velocity -5.72124868221649 -1.05289553365173 0 angularVelocity 0 0 1.16840379536576 force -4.20914779158199 62.5825142618698 0 torque 0 0 -2.91923233024119 radius 0.458328316492654 invMass 1.19010869795051
BaseParticle id 11 indSpecies 0 position 14.5220063734537 11.3706647440627 0 orientation 0.722963017264517 0 0 -0.690886731431272 velocity 3.01988457193561 -0.936564437822599 0 angularVelocity 0 0 -4.10610605756059 force -3.68054620024928 17.9966856801797 0 torque 0 0 -28.6621141506563 radius 0.59718323555106 invMass 0.70101093691162
BaseParticle id 12 indSpecies 0 position 7.41278890487143 14.795788952015 0 orientation -0.993599174475569 0 0 0.112963181973013 velocity 6.18593337010332 1.7569967589901 0 angularVelocity 0 0 -2.6767053638082 force -8.55978714546894 -21.073452474401 0 torque 0 0 1.63288526108239 radius 0.435925238173525 invMass 1.31557611994247
BaseParticle id 13 indSpecies 0 position 0.590778239044717 11.3516198955307 0 orientation -0.53780328350785 0 0 -0.843070357827966 velocity 1.82000440823881 -0.666322374873167 0 angularVelocity 0 0 5.25557390671997 force 40.9692192836339 -1.13890299287369 0 torque 0 0 -9.02753072255583 radius 0.507575601239153 invMass 0.970372618256492
BaseParticle id 14 indSpecies 0 position 0.640935829026398 1.11481706355642 0 orientation -0.607465123663011 0 0 0.794346349858223 velocity -6.13854287443698 0.599417498084639 0 angularVelocity 0 0 -0.712812984984749 force 30.6643509369328 -39.5451733797307 0 torque 0 0 7.20538176316418 radius 0.439748435616728 invMass 1.29280017544927
BaseParticle id 15 indSpecies 0 position 9.96092372193664 7.38355792291745 0 orientation 0.919519874148197 0 0 -0.393043510373194 velocity -1.00647500954595 -0.430576695675314 0 angularVelocity 0 0 0.35062473143621 force 61.3566902556439 -58.2450600589109 0 torque 0 0 11.0011694043982 radius 0.437439820694328 invMass 1.30648184446695
BaseParticle id 16 indSpecies 0 position 11.232238479808 5.40647331978853 0 orientation -0.0912641616013506 0 0 -0.995826718263375 velocity -1.46612815804325 -2.85395930999836 0 angularVelocity 0 0 -3.15474276758071 force 50.9739178123544 -1.81953513743176 0 torque 0 0 11.7140535951674 radius 0.537099516636599 invMass 0.866623548094783
BaseParticle id 17 indSpecies 0 position 8.81774524487493 9.34300303360984 0 orientation -0.989098391922714 0 0 0.147256141114388 velocity 0.806233738284925 -0.973147468219001 0 angularVelocity 0 0 0.407855925916716 force 20.1182169049118 -9.79097693346913 0 torque 0 0 -6.3329089302726 radius 0.425739832012225 invMass 1.3792768269792
BaseParticle id 18 indSpecies 0 position 0.847972372644215 4.80237238186848 0 orientation 0.586733129566276 0 0 -0.809780361992907 velocity -1.61030599221047 0.359129971991849 0 angularVelocity 0 0 -0.530932677145119 force -31.5666634602056 -47.5962678904332 0 torque 0 0 -0.665301436303818 radius 0.414972699605885 invMass 1.45178049230394
BaseParticle id 19 indSpecies 0 position 10.0648772300791 12.779648345438 0 orientation 0.647117017992924 0 0 0.762390690541238 velocity 4.48670091898438 0.371981880289653 0 angularVelocity 0 0 3.07186339988677 force -6.82694920443475 12.6035658906052 0 torque 0 0 21.0031571869026 radius 0.516817914585753 invMass 0.935976381949314
BaseParticle id 20 indSpecies 0 position 0.884119362725445 2.94400297463232 0 orientation 0.883623418482604 0 0 -0.468198306606417 velocity -4.69524038568876 0.950744248685542 0 angularVelocity 0 0 -0.583035702843015 force 56.9683802670025 -51.0062155942941 0 torque 0 0 14.8891856799117 radius 0.557670171784544 invMass 0.803868807065473
BaseParticle id 21 indSpecies 0 position 2.01371215681453 12.4453016939756 0 orientation 0.815635919418966 0 0 0.578565507919006 velocity 4.50357263612342 -0.423471516974005 0 angularVelocity 0 0 0.285690310659773 force 31.8931483560322 91.6707602561326 0 torque 0 0 18.5749168693985 radius 0.580649205874047 invMass 0.741502015523424
BaseParticle id 22 indSpecies 0 position 10.7104316371048 8.28201453180985 0 orientation 0.51071098229838 0 0 0.859752460048719 velocity 0.200840588560859 -0.689553435321096 0 angularVelocity 0 0 -2.88808942975924 force 37.2611094836106 26.2839043605854 0 torque 0 0 5.69574894360182 radius 0.522244593014713 invMass 0.916625857180633
BaseParticle id 23 indSpecies 0 position 2.50426023719417 1.4867250756211 0 orientation -0.60279928991244 0 0 0.797892860026369 velocity -6.06577163132182 -0.617589603386838 0 angularVelocity 0 0 0.221555563911248 force -32.8047598555293 -38.8418060454409 0 torque 0 0 16.4823006976986 radius 0.46481008598133 invMass 1.15714803465774
BaseParticle id 24 indSpecies 0 position 1.65790244570006 11.4308181498371 0 orientation 0.453785520405054 0 0 -0.891110936680004 velocity 2.79144337160448 -0.413233015424184 0 angularVelocity 0 0 0.234833543186713 force -55.3097632278281 -90.1388477425616 0 torque 0 0 -7.60337896896366 radius 0.579151562061951 invMass 0.74534191451288
BaseParticle id 25 indSpecies 0 position 1.25368413231547 8.63126786375641 0 orientation 0.251465532312914 0 0 0.967866254220377 velocity -0.716253364029038 0.454288379724826 0 angularVelocity 0 0 0.764798142458887 force 15.7020465348758 1.77758438172692 0 torque 0 0 -1.60741202344272 radius 0.474449489755137 invMass 1.11060606508153
BaseParticle id 26 indSpecies 0 position 13.7083064656369 1.43912595350454 0 orientation -0.987597247099666 0 0 0.157008526905903 velocity -6.17380342325223 -3.05020690650042 0 angularVelocity 0 0 5.06478208780142 force -37.3679091447392 27.2262071214212 0 torque 0 0 -10.9949290238672 radius 0.446432356120616 invMass 1.25437873139117
BaseParticle id 27 indSpecies 0 position 4.5730021199028 4.58320064673378 0 orientation 0.390998303653802 0 0 0.920391398558162 velocity -4.6946515302932 2.04164772150688 0 angularVelocity 0 0 -3.9305785440371 force 79.4169237927823 -28.843737901268 0 torque 0 0 0.312480126809301 radius 0.40623971428141 invMass 1.51486960747096
BaseParticle id 28 indSpecies 0 position 1.96763583634512 13.3869097682192 0 orientation 0.396992676773782 0 0 -0.917821777137581 velocity 6.59317297826355 0.296957563009841 0 angularVelocity 0 0 -1.45208169072527 force -14.5386115669612 -30.4653682482757 0 torque 0 0 5.66958033154046 radius 0.419184754957273 invMass 1.42275149052303
BaseParticle id 29 indSpecies 0 position 5.28859829494914 6.62469346769339 0 orientation 0.236506015391656 0 0 0.971630024589381 velocity -1.50033936205904 0.510397739067027 0 angularVelocity 0 0 -0.815563941284647 force 42.3459224477305 -13.4997140192753 0 torque 0 0 -10.5358488388055 radius 0.554470777367735 invMass 0.813172502113774
BaseParticle id 30 indSpecies 0 position 14.7152365735624 1.47268702585234 0 orientation -0.381938183482472 0 0 -0.924187872674225 velocity -5.69491123996145 0.266627511111676 0 angularVelocity 0 0 -0.826764275967378 force -5.80114806792433 49.8525771326641 0 torque 0 0 12.6202500983344 radius 0.58201726620829 invMass 0.738020238151995
BaseParticle id 31 indSpecies 0 position 12.1981247798531 7.65495875058358 0 orientation 0.8076564280754 0 0 -0.589653367825951 velocity -0.0752114898069586 0.985445882383492 0 angularVelocity 0 0 -2.31129176017743 force -8.48567606642598 23.3907305952229 0 torque 0 0 -3.98970386678951 radius 0.562139896152411 invMass 0.791136078850553
BaseParticle id 32 indSpecies 0 position 12.608692475534 4.83524165643815 0 orientation 0.808057091654749 0 0 -0.589104181470874 velocity -2.55390240963143 -0.0763692182078309 0 angularVelocity 0 0 -4.40187198591296 force -12.5529233806458 10.2215225848023 0 torque 0 0 -7.65524259832489 radius 0.490619558384065 invMass 1.03860472548434
BaseParticle id 33 indSpecies 0 position 11.7385957319344 4.60484439353912 0 orientation 0.0436933214937009 0 0 -0.999044990807145 velocity -1.83802568020058 -3.79193988311659 0 angularVelocity 0 0 5.55540105126496 force 0 0 0 torque 0 0 0 radius 0.407075144157675 invMass 1.50865813177076
BaseParticle id 34 indSpecies 0 position 5.92835683908808 12.5078723581576 0 orientation -0.960288546193543 0 0 0.279008795648974 velocity 4.06220542092711 0.992042650895386 0 angularVelocity 0 0 -1.64874420624138 force -40.0673225219206 -27.5581659836358 0 torque 0 0 13.791845819301 radius 0.419519419391156 invMass 1.42048244464748
BaseParticle id 35 indSpecies 0 position 13.457065016511 10.1732720957806 0 orientation 0.347816809572671 0 0 -0.937562513637725 velocity 1.34291637198523 -0.840899107011625 0 angularVelocity 0 0 -1.56077116883981 force -11.7839348750002 -67.3168787017171 0 torque 0 0 -7.77677634816835 radius 0.492819850619119 invMass 1.02935131384005
BaseParticle id 36 indSpecies 0 position 8.24175651738893 6.80676754161694 0 orientation 0.425376732465144 0 0 0.905016373043757 velocity -0.123999794363318 -1.66056005223262 0 angularVelocity 0 0 0.257423502990253 force -31.1895839053662 -26.7391091925107 0 torque 0 0 0.119559652776066 radius 0.496534051097432 invMass 1.01400929321745
BaseParticle id 37 indSpecies 0 position 4.50291170403615 1.77539998011479 0 orientation -0.827282655562651 0 0 -0.561785909226288 velocity -6.70388394918575 0.761561406376352 0 angularVelocity 0 0 3.65648712055628 force 45.9377821694664 -59.4694865711426 0 torque 0 0 -0.768795767864898 radius 0.456191804766476 invMass 1.2012822232581
BaseParticle id 38 indSpecies 0 position 0.114680848227357 13.1119209019747 0 orientation -0.978060529924244 0 0 0.20832090582634 velocity 5.023251331084 -0.744169191319866 0 angularVelocity 0 0 -1.25358270573705 force 41.2161877579214 35.1653447714138 0 torque 0 0 17.1309380825397 radius 0.480361011176965 invMass 1.08343910813323
BaseParticle id 39 indSpecies 0 position 1.09705311323858 6.41184012654548 0 orientation 0.790946758103788 0 0 0.611884977626602 velocity -2.80573194590931 0.5510276713563 0 angularVelocity 0 0 -2.33930578360963 force 15.3174843490185 69.6765862307162 0 torque 0 0 0.17161147544219 radius 0.408118826702127 invMass 1.5009518132041
BaseParticle id 40 indSpecies 0 position 11.2591038088933 14.050021240848 0 orientation -0.587952211278828 0 0 0.808895665245115 velocity 5.31343328229626 1.46111724449216 0 angularVelocity 0 0 -4.12323451768667 force 24.1995359447264 -76.8382827396294 0 torque 0 0 -20.8585421985222 radius 0.486191615568296 invMass 1.05760885521965
BaseParticle id 41 indSpecies 0 position 13.308044036384 0.515981607147175 0 orientation -0.572917748796404 0 0 0.819612867830942 velocity -7.13914172954606 -1.29528219198085 0 angularVelocity 0 0 -3.86251039704469 force 44.256965560293 -87.8189755698951 0 torque 0 0 -25.4423301598967 radius 0.59153976869626 invMass 0.714450450332912
BaseParticle id 42 indSpecies 0 position 14.8962990246623 5.00954946209819 0 orientation -0.349282157863619 0 0 -0.937017595458129 velocity -2.11065602845683 0.414697542153931 0 angularVelocity 0 0 2.30709963036483 force 2.69071377614266 2.65924516895143 0 torque 0 0 1.27193778185919 radius 0.525167117523805 invMass 0.906452304459179
BaseParticle id 43 indSpecies 0 position 2.86075452392328 14.6494609262978 0 orientation -0.953634004210767 0 0 -0.300968745907176 velocity 7.48306424940904 0.300019811687457 0 angularVelocity 0 0 -4.75099003545078 force -7.79115960544102 4.67404289411269 0 torque 0 0 5.81230362333767 radius 0.569847508361705 invMass 0.769879403795168
BaseParticle id 44 indSpecies 0 position 11.9969163483008 6.54398010605511 0 orientation -0.250349381099017 0 0 -0.968155559496168 velocity -1.85390272132947 1.86739730860125 0 angularVelocity 0 0 0.117091565608418 force -43.7596678727139 14.4997843515688 0 torque 0 0 -12.2089441505581 radius 0.596935467611127 invMass 0.701592990051971
BaseParticle id 45 indSpecies 0 position 14.4595767319821 8.50782821657785 0 orientation -0.245294569888475 0 0 -0.969448592749109 velocity 0.66904339036732 1.17769945051952 0 angularVelocity 0 0 -0.239651559083914 force 46.5472212395937 -59.1314842144999 0 torque 0 0 -4.85609598466748 radius 0.551537996389402 invMass 0.82184351862341
BaseParticle id 46 indSpecies 0 position 1.91934907727091 2.28405781843591 0 orientation 0.7074658724315 0 0 -0.706747507490997 velocity -5.55219570718612 -0.291412982850841 0 angularVelocity 0 0 -0.0465313585995947 force 8.47323715923519 8.99930360734314 0 torque 0 0 -1.36739918550496 radius 0.560503976828881 invMass 0.795760929223729
BaseParticle id 47 indSpecies 0 position 13.4146757514442 6.55824428094715 0 orientation 0.895113911236029 0 0 0.445837510660261 velocity -1.36763212542582 -0.262794884329887 0 angularVelocity 0 0 -2.21389643585898 force 16.8146716281609 15.3395688981285 0 torque 0 0 -0.971864496940718 radius 0.411416921567715 invMass 1.47698371943721
BaseParticle id 48 indSpecies 0 position 8.15980434576366 7.77357609774717 0 orientation 0.991096807689241 0 0 -0.133143222839904 velocity -0.651046108477002 -0.441492234182465 0 angularVelocity 0 0 -2.54822028263976 force -38.4370012071484 19.332577455578 0 torque 0 0 4.07660273097163 radius 0.407020688236672 invMass 1.50906185013823
BaseParticle id 49 indSpecies 0 position 11.4802255019887 11.4176562920774 0 orientation 0.916560689899661 0 0 -0.399895613542655 velocity 4.58783583189766 1.70479552597181 0 angularVelocity 0 0 4.92706089871424 force 57.8807780244938 -52.517484264742 0 torque 0 0 1.6504331023152 radius 0.485903055699632 invMass 1.05886537784231
BaseParticle id 50 indSpecies 0 position 9.26466509546994 3.00353368450972 0 orientation -0.283212388701149 0 0 -0.959057215647841 velocity -3.75133907473052 -2.39234583280935 0 angularVelocity 0 0 -0.864736619833578 force -3.05394803135528 -82.7391353262315 0 torque 0 0 -4.08410639557009 radius 0.569054771429808 invMass 0.772025899959515
BaseParticle id 51 indSpecies 0 position 12.3074323317414 12.4021479423354 0 orientation 0.363723487662916 0 0 -0.931506964290834 velocity 5.1017349641384 0.864089986859938 0 angularVelocity 0 0 -0.747291241639498 force 17.0483967371373 41.2577675134927 0 torque 0 0 -12.3865137460756 radius 0.599654840492034 invMass 0.695244114755309
BaseParticle id 52 indSpecies 0 position 8.4974960565461 4.78573370867292 0 orientation -0.0027613026379828 0 0 0.999996187596604 velocity -2.55426620703584 -1.20655952298182 0 angularVelocity 0 0 -3.1820144207956 force -13.3706590416183 32.3197808899487 0 torque 0 0 8.30080351303678 radius 0.424383755191803 invMass 1.38810559886234
BaseParticle id 53 indSpecies 0 position 13.2256140407705 5.65665855960643 0 orientation 0.478771971947427 0 0 -0.877939291111619 velocity -2.28716439262628 0.14850328549877 0 angularVelocity 0 0 -2.72466704516078 force -26.7858870558483 -6.53129914023735 0 torque 0 0 0.95361206314624 radius 0.522934278731296 invMass 0.914209619038676
BaseParticle id 54 indSpecies 0 position 9.69537197099639 9.22730615168102 0 orientation 0.722130687369 0 0 -0.691756655450438 velocity 2.29115053206177 -0.203357158583423 0 angularVelocity 0 0 1.73756214007074 force -6.22275316744635 29.929354670651 0 torque 0 0 -4.83912527703708 radius 0.488232907198153 invMass 1.04878366159206
BaseParticle id 55 indSpecies 0 position 10.4428675807212 4.82246075491866 0 orientation 0.761902271563596 0 0 -0.647692001329514 velocity -3.18439373404915 -1.99777627191553 0 angularVelocity 0 0 -1.13876947160111 force 8.54804731213957 -25.4150175194912 0 torque 0 0 0.228160197345082 radius 0.463809693359016 invMass 1.16214513062843
BaseParticle id 56 indSpecies 0 position 7.57714859266347 2.33927593807674 0 orientation -0.998122750678095 0 0 -0.0612452004551683 velocity -8.64362288309245 0.138658987728112 0 angularVelocity 0 0 -2.95980427017041 force 177.942009699515 -80.9394906615057 0 torque 0 0 -3.96610541653875 radius 0.436349573883834 invMass 1.31301865444806
BaseParticle id 57 indSpecies 0 position 5.53841623188463 1.69464715621306 0 orientation -0.897621510002242 0 0 -0.440767086771795 velocity -5.91582921433509 0.603087611221636 0 angularVelocity 0 0 -2.30503319834206 force 0 0 0 torque 0 0 0 radius 0.566486416602054 invMass 0.779042242501049
BaseParticle id 58 indSpecies 0 position 11.7385416802636 8.61301064400413 0 orientation 0.550536356534978 0 0 0.834811188313377 velocity -1.4961040008617 1.60736361911611 0 angularVelocity 0 0 0.734237818239175 force -69.3062205514588 63.7504764308387 0 torque 0 0 -16.8113794748626 radius 0.5622327963242 invMass 0.790874654735751
BaseParticle id 59 indSpecies 0 position 14.6307286512812 4.12364289116482 0 orientation 0.377008836636584 0 0 0.926209661522665 velocity -3.43358701214266 3.2033336029518 0 angularVelocity 0 0 -0.792083532290885 force -12.9899543801539 46.1552506064792 0 torque 0 0 2.21106410008953 radius 0.41674196923455 invMass 1.4394796497164
BaseParticle id 60 indSpecies 0 position 5.12403918373457 12.819636426421 0 orientation 0.713830958937481 0 0 -0.700318043507659 velocity 3.97632962535329 0.175955181597892 0 angularVelocity 0 0 5.34011204038503 force 56.5736000681563 -53.3345508279755 0 torque 0 0 -18.1887212416652 radius 0.44527600869045 invMass 1.26090224044777
BaseParticle id 61 indSpecies 0 position 12.6153432113192 9.28313514442772 0 orientation 0.823076895610815 0 0 -0.567929946306464 velocity 0.118615132593282 -0.831129167113556 0 angularVelocity 0 0 -3.20820768080408 force 15.7721850749237 3.33639984342527 0 torque 0 0 -4.74646865965866 radius 0.547629797321158 invMass 0.833615665304513
BaseParticle id 62 indSpecies 0 position 8.17454987098066 5.72384264548519 0 orientation 0.946679153955817 0 0 -0.322177869298154 velocity -1.28369615559237 -1.0421249629278 0 angularVelocity 0 0 -0.91409076757018 force -94.8875373788427 46.9565421986284 0 torque 0 0 -13.420257932832 radius 0.592518138333673 invMass 0.712092988209593
BaseParticle id 63 indSpecies 0 position 6.05657424530388 7.48098148139289 0 orientation -0.266864209909395 0 0 -0.963734140450277 velocity -1.36536703769025 0.632820852707953 0 angularVelocity 0 0 2.16192801219373 force 0 0 0 torque 0 0 0 radius 0.593303123681524 invMass 0.710209927927443
BaseParticle id 64 indSpecies 0 position 11.9477253798307 1.91583760472036 0 orientation -0.916357006273976 0 0 -0.400362132390911 velocity -7.00989322784139 -0.129680817162418 0 angularVelocity 0 0 -4.6334144978861 force -22.0757064664894 46.0372500148049 0 torque 0 0 -1.51744529043974 radius 0.515135914352596 invMass 0.942098582472991
BaseParticle id 65 indSpecies 0 position 1.78333471863238 14.3148255222037 0 orientation -0.808125673055474 0 0 0.589010098851147 velocity 7.19286315581112 -1.24050676061624 0 angularVelocity 0 0 0.466066247974874 force 125.586282419402 -4.12676928325172 0 torque 0 0 -10.246987638894 radius 0.555997980985792 invMass 0.808711426912907
BaseParticle id 66 indSpecies 0 position 4.12853387597259 8.23642552145669 0 orientation 0.974336345574143 0 0 0.225097058384208 velocity -0.0502994858393522 0.610663064274058 0 angularVelocity 0 0 -0.629620938894909 force 129.501268869353 -81.1455061390286 0 torque 0 0 -13.8472890753016 radius 0.411747700896349 invMass 1.47461158990072
BaseParticle id 67 indSpecies 0 position 9.01020354023935 7.4456541268946 0 orientation 0.85605410676166 0 0 -0.516886221809497 velocity -0.664178569651207 -0.98899347182954 0 angularVelocity 0 0 0.779514380178407 force 37.0351221326509 56.8375891031351 0 torque 0 0 2.39961185128744 radius 0.530901985307315 invMass 0.886974858630641
BaseParticle id 68 indSpecies 0 position 7.15040636793371 1.4181025302334 0 orientation -0.418907482916438 0 0 -0.908028920660908 velocity -8.75838450127466 -2.44684094855414 0 angularVelocity 0 0 -5.24375833980853 force 59.0943865468808 37.019077977656 0 torque 0 0 15.6119097540002 radius 0.454036666588824 invMass 1.21271334193254
BaseParticle id 69 indSpecies 0 position 6.77319750382619 12.835222048337 0 orientation 0.954546147520626 0 0 0.298063168227025 velocity 6.32790816887409 1.34835284192528 0 angularVelocity 0 0 -1.65100939938998 force -1.15812412325155 3.92556374078594 0 torque 0 0 -13.1442630202953 radius 0.47582291637005 invMass 1.10420395836047
BaseParticle id 70 indSpecies 0 position 1.93556825738354 6.06009702809645 0 orientation -0.181931634676459 0 0 -0.983311181825952 velocity -2.86032812744156 -0.100697371460969 0 angularVelocity 0 0 0.819140288307602 force -7.70719402551572 95.4687710676754 0 torque 0 0 -12.8015726242505 radius 0.506138601241504 invMass 0.975890493927447
BaseParticle id 71 indSpecies 0 position 8.65804280690988 3.8862876918535 0 orientation 0.926842989574242 0 0 0.375449161241681 velocity -4.11086306912566 -2.10759239878002 0 angularVelocity 0 0 1.02431559208961 force -20.4543189163996 -26.5772796507466 0 torque 0 0 20.1001781190538 radius 0.517258662434985 invMass 0.934382000444317
BaseParticle id 72 indSpecies 0 position 0.897367792745843 1.96539379165394 0 orientation 0.901215980696476 0 0 -0.433370229869667 velocity -5.72531148164141 0.760540259768267 0 angularVelocity 0 0 0.585026022378674 force 20.1449131783524 3.04507674712274 0 torque 0 0 -4.26317290540277 radius 0.457677194794941 invMass 1.1934973606173
BaseParticle id 73 indSpecies 0 position 8.50252231609997 13.6104092256501 0 orientation -0.952702221613115 0 0 -0.303905374966344 velocity 6.63416679128586 -0.135771028461741 0 angularVelocity 0 0 -1.04083117706441 force 23.4036039366515 76.7732789254672 0 torque 0 0 -3.89791591216178 radius 0.551657597579381 invMass 0.821487200472219
BaseParticle id 74 indSpecies 0 position 5.25854044292096 8.290879361815 0 orientation -0.0563179388190633 0 0 0.998412885417237 velocity 0.534346745241614 0.148848616472291 0 angularVelocity 0 0 -1.6223804969129 force -6.18031121791341 -4.49695604523636 0 torque 0 0 1.7413877070565 radius 0.511267087691215 invMass 0.956410501264258
BaseParticle id 75 indSpecies 0 position 9.1833066923105 12.9824867710789 0 orientation 0.956770069362818 0 0 0.290845378803701 velocity 4.91444500241481 -1.36937654301224 0 angularVelocity 0 0 0.397626185936208 force 11.2156365794231 -32.3524008471756 0 torque 0 0 0.385372272011321 radius 0.430345948571017 invMass 1.34990924366033
BaseParticle id 76 indSpecies 0 position 7.18000977893567 5.8972928103689 0 orientation -0.955067049770395 0 0 -0.296389828507783 velocity 0.115675796041571 0.666867641354313 0 angularVelocity 0 0 -4.28061379422971 force -47.2302285871174 -1.34450804418255 0 torque 0 0 -1.17326817677215 radius 0.43874251112459 invMass 1.29873509234223
BaseParticle id 77 indSpecies 0 position 14.3958428314604 10.3048425753636 0 orientation -0.985512699706648 0 0 -0.169601647152719 velocity 1.93103481518948 -1.32727977304592 0 angularVelocity 0 0 1.365998016921 force -34.329546977015 54.2971791065321 0 torque 0 0 -10.0497523259953 radius 0.508786219070865 invMass 0.965760257556457
BaseParticle id 78 indSpecies 0 position 13.8721388801709 14.1407309125799 0 orientation -0.390246959017906 0 0 -0.920710220958406 velocity 7.68458239146863 0.494678656913108 0 angularVelocity 0 0 -1.06665733091708 force 49.3209786401585 46.6031020395901 0 torque 0 0 -11.4598379920792 radius 0.506306820636329 invMass 0.975242126455046
BaseParticle id 79 indSpecies 0 position 12.4547134592644 11.3904024560272 0 orientation 0.219468439409914 0 0 -0.975619600101893 velocity 3.89922869311224 0.0812833988089551 0 angularVelocity 0 0 -3.12708254383799 force -37.5668181352287 74.9272188561572 0 torque 0 0 12.4216018150251 radius 0.49551822888151 invMass 1.01817103307618
BaseParticle id 80 indSpecies 0 position 0.489586341637202 0.131845542009265 0 orientation -0.979077079295479 0 0 -0.203489736346172 velocity -6.8632022734765 0.246828838339338 0 angularVelocity 0 0 -1.477041328195 force 10.8887414170273 -15.2012772517087 0 torque 0 0 -3.19294326933593 radius 0.56723574421626 invMass 0.776985347130526
BaseParticle id 81 indSpecies 0 position 3.82500440216871 4.88589080937815 0 orientation -0.999888208318423 0 0 0.0149522863059043 velocity -3.4351121973082 0.693007161787679 0 angularVelocity 0 0 2.83345840643706 force -0.214817698617381 15.6188956844894 0 torque 0 0 11.0340173839598 radius 0.453321833672634 invMass 1.21654095771375
BaseParticle id 82 indSpecies 0 position 12.1777147665683 0.500446168374265 0 orientation 0.468491358864362 0 0 -0.883468079032527 velocity -7.73425100824807 -0.839921186122262 0 angularVelocity 0 0 -2.12817979724855 force 4.19345876624774 -4.93577830371194 0 torque 0 0 0.822332360206073 radius 0.431704653397478 invMass 1.3414254716521
BaseParticle id 83 indSpecies 0 position 8.93042270769835 0.730112145020194 0 orientation 0.897007311784823 0 0 -0.442015704024829 velocity -7.51323306577185 1.53202079000313 0 angularVelocity 0 0 -1.32921097051728 force 18.8160877217489 8.57818504165738 0 torque 0 0 17.8582169878228 radius 0.58482788709474 invMass 0.730943589721358
BaseParticle id 84 indSpecies 0 position 7.20905787059103 6.8798976256472 0 orientation 0.98017287736274 0 0 -0.19814421637395 velocity 0.356590157726412 -0.119814378837321 0 angularVelocity 0 0 -2.48770286134883 force 34.2817523924051 21.3561388898418 0 torque 0 0 8.84696321818661 radius 0.546747668323342 invMass 0.836307765556275
BaseParticle id 85 indSpecies 0 position 6.74693652938671 0.528508736731507 0 orientation -0.264204423558602 0 0 -0.964466703713543 velocity -8.61620748188738 -1.2929226982063 0 angularVelocity 0 0 -1.51798498821928 force -130.152343179634 -70.6630482822432 0 torque 0 0 20.4937978048943 radius 0.576991507059903 invMass 0.75093296086944